
Predictions were generated on 25-Sep-2024 at 13:44:56 using OpenFAST, compiled as a 64-bit application using single precision at commit v3.0.0
 linked with  NWTC Subroutine Library; ElastoDyn; InflowWind; AeroDyn; ServoDyn

Description from the FAST input file: FAST model of the DTU 10MW Reference Wind Turbine on monopile

Time	Wind1VelX	RotSpeed	GenSpeed	YawBrTAxp	BldPitch1	BldPitch2	BldPitch3	TwrBsMyt	LSShftTq	RotThrust	RtAeroFxh	GenPwr	GenTq
(s)	(m/s)	(rpm)	(rpm)	(m/s^2)	(deg)	(deg)	(deg)	(kN-m)	(kN-m)	(kN)	(N)	(kW)	(kN-m)
    0.0000	 1.000E+01	 0.000E+00	 0.000E+00	 0.000E+00	 0.000E+00	 0.000E+00	 0.000E+00	-5.801E+03	 0.000E+00	 1.973E+02	 8.954E+04	 0.000E+00	 0.000E+00
    0.0250	 1.000E+01	 3.289E-04	 1.644E-02	 0.000E+00	 0.000E+00	 0.000E+00	 0.000E+00	 2.512E+03	 5.168E+00	 2.868E+02	 8.954E+04	 0.000E+00	 0.000E+00
    0.0500	 1.000E+01	 6.584E-04	 3.292E-02	 0.000E+00	 0.000E+00	 0.000E+00	 0.000E+00	 2.512E+03	 5.181E+00	 2.868E+02	 8.954E+04	 0.000E+00	 0.000E+00
    0.0750	 1.000E+01	 9.883E-04	 4.941E-02	 0.000E+00	 0.000E+00	 0.000E+00	 0.000E+00	 2.512E+03	 5.187E+00	 2.868E+02	 8.954E+04	 0.000E+00	 0.000E+00
    0.1000	 1.000E+01	 1.319E-03	 6.593E-02	 0.000E+00	 0.000E+00	 0.000E+00	 0.000E+00	 2.512E+03	 5.193E+00	 2.868E+02	 8.954E+04	 0.000E+00	 0.000E+00
    0.1250	 1.000E+01	 1.649E-03	 8.246E-02	 0.000E+00	 0.000E+00	 0.000E+00	 0.000E+00	 2.512E+03	 5.199E+00	 2.868E+02	 8.954E+04	 0.000E+00	 0.000E+00
    0.1500	 1.000E+01	 1.980E-03	 9.901E-02	 0.000E+00	 0.000E+00	 0.000E+00	 0.000E+00	 2.512E+03	 5.205E+00	 2.868E+02	 8.954E+04	 0.000E+00	 0.000E+00
    0.1750	 1.000E+01	 2.312E-03	 1.156E-01	 0.000E+00	 0.000E+00	 0.000E+00	 0.000E+00	 2.512E+03	 5.211E+00	 2.868E+02	 8.954E+04	 0.000E+00	 0.000E+00
    0.2000	 1.000E+01	 2.644E-03	 1.322E-01	 0.000E+00	 0.000E+00	 0.000E+00	 0.000E+00	 2.512E+03	 5.218E+00	 2.868E+02	 8.954E+04	 0.000E+00	 0.000E+00
    0.2250	 1.000E+01	 2.976E-03	 1.488E-01	 0.000E+00	 0.000E+00	 0.000E+00	 0.000E+00	 2.512E+03	 5.224E+00	 2.868E+02	 8.954E+04	 0.000E+00	 0.000E+00
    0.2500	 1.000E+01	 3.308E-03	 1.654E-01	 0.000E+00	 0.000E+00	 0.000E+00	 0.000E+00	 2.512E+03	 5.230E+00	 2.868E+02	 8.954E+04	 0.000E+00	 0.000E+00
    0.2750	 1.000E+01	 3.641E-03	 1.821E-01	 0.000E+00	 0.000E+00	 0.000E+00	 0.000E+00	 2.512E+03	 5.236E+00	 2.868E+02	 8.954E+04	 0.000E+00	 0.000E+00
    0.3000	 1.000E+01	 3.975E-03	 1.987E-01	 0.000E+00	 0.000E+00	 0.000E+00	 0.000E+00	 2.512E+03	 5.242E+00	 2.868E+02	 8.954E+04	 0.000E+00	 0.000E+00
    0.3250	 1.000E+01	 4.309E-03	 2.154E-01	 0.000E+00	 0.000E+00	 0.000E+00	 0.000E+00	 2.512E+03	 5.248E+00	 2.868E+02	 8.954E+04	 0.000E+00	 0.000E+00
    0.3500	 1.000E+01	 4.643E-03	 2.321E-01	 0.000E+00	 0.000E+00	 0.000E+00	 0.000E+00	 2.512E+03	 5.254E+00	 2.868E+02	 8.954E+04	 0.000E+00	 0.000E+00
    0.3750	 1.000E+01	 4.977E-03	 2.489E-01	 0.000E+00	 0.000E+00	 0.000E+00	 0.000E+00	 2.512E+03	 5.260E+00	 2.868E+02	 8.954E+04	 0.000E+00	 0.000E+00
    0.4000	 1.000E+01	 5.312E-03	 2.656E-01	 0.000E+00	 0.000E+00	 0.000E+00	 0.000E+00	 2.512E+03	 5.266E+00	 2.868E+02	 8.954E+04	 0.000E+00	 0.000E+00
    0.4250	 1.000E+01	 5.648E-03	 2.824E-01	 0.000E+00	 0.000E+00	 0.000E+00	 0.000E+00	 2.512E+03	 5.272E+00	 2.868E+02	 8.954E+04	 0.000E+00	 0.000E+00
    0.4500	 1.000E+01	 5.983E-03	 2.992E-01	 0.000E+00	 0.000E+00	 0.000E+00	 0.000E+00	 2.512E+03	 5.278E+00	 2.868E+02	 8.954E+04	 0.000E+00	 0.000E+00
    0.4750	 1.000E+01	 6.320E-03	 3.160E-01	 0.000E+00	 0.000E+00	 0.000E+00	 0.000E+00	 2.512E+03	 5.284E+00	 2.868E+02	 8.954E+04	 0.000E+00	 0.000E+00
    0.5000	 1.000E+01	 6.656E-03	 3.328E-01	 0.000E+00	 0.000E+00	 0.000E+00	 0.000E+00	 2.512E+03	 5.290E+00	 2.868E+02	 8.954E+04	 0.000E+00	 0.000E+00
    0.5250	 1.000E+01	 6.993E-03	 3.496E-01	 0.000E+00	 0.000E+00	 0.000E+00	 0.000E+00	 2.512E+03	 5.296E+00	 2.868E+02	 8.954E+04	 0.000E+00	 0.000E+00
    0.5500	 1.000E+01	 7.330E-03	 3.665E-01	 0.000E+00	 0.000E+00	 0.000E+00	 0.000E+00	 2.512E+03	 5.302E+00	 2.868E+02	 8.954E+04	 0.000E+00	 0.000E+00
    0.5750	 1.000E+01	 7.668E-03	 3.834E-01	 0.000E+00	 0.000E+00	 0.000E+00	 0.000E+00	 2.512E+03	 5.308E+00	 2.868E+02	 8.954E+04	 0.000E+00	 0.000E+00
    0.6000	 1.000E+01	 8.006E-03	 4.003E-01	 0.000E+00	 0.000E+00	 0.000E+00	 0.000E+00	 2.512E+03	 5.313E+00	 2.868E+02	 8.954E+04	 0.000E+00	 0.000E+00
    0.6250	 1.000E+01	 8.344E-03	 4.172E-01	 0.000E+00	 0.000E+00	 0.000E+00	 0.000E+00	 2.512E+03	 5.319E+00	 2.868E+02	 8.954E+04	 0.000E+00	 0.000E+00
    0.6500	 1.000E+01	 8.683E-03	 4.341E-01	 0.000E+00	 0.000E+00	 0.000E+00	 0.000E+00	 2.512E+03	 5.325E+00	 2.868E+02	 8.954E+04	 0.000E+00	 0.000E+00
    0.6750	 1.000E+01	 9.022E-03	 4.511E-01	 0.000E+00	 0.000E+00	 0.000E+00	 0.000E+00	 2.512E+03	 5.331E+00	 2.868E+02	 8.954E+04	 0.000E+00	 0.000E+00
    0.7000	 1.000E+01	 9.361E-03	 4.681E-01	 0.000E+00	 0.000E+00	 0.000E+00	 0.000E+00	 2.512E+03	 5.336E+00	 2.868E+02	 8.954E+04	 0.000E+00	 0.000E+00
    0.7250	 1.000E+01	 9.701E-03	 4.851E-01	 0.000E+00	 0.000E+00	 0.000E+00	 0.000E+00	 2.512E+03	 5.342E+00	 2.868E+02	 8.954E+04	 0.000E+00	 0.000E+00
    0.7500	 1.000E+01	 1.004E-02	 5.021E-01	 0.000E+00	 0.000E+00	 0.000E+00	 0.000E+00	 2.512E+03	 5.348E+00	 2.868E+02	 8.954E+04	 0.000E+00	 0.000E+00
    0.7750	 1.000E+01	 1.038E-02	 5.191E-01	 0.000E+00	 0.000E+00	 0.000E+00	 0.000E+00	 2.512E+03	 5.353E+00	 2.868E+02	 8.954E+04	 0.000E+00	 0.000E+00
    0.8000	 1.000E+01	 1.072E-02	 5.361E-01	 0.000E+00	 0.000E+00	 0.000E+00	 0.000E+00	 2.512E+03	 5.359E+00	 2.868E+02	 8.954E+04	 0.000E+00	 0.000E+00
    0.8250	 1.000E+01	 1.106E-02	 5.532E-01	 0.000E+00	 0.000E+00	 0.000E+00	 0.000E+00	 2.512E+03	 5.364E+00	 2.868E+02	 8.954E+04	 0.000E+00	 0.000E+00
    0.8500	 1.000E+01	 1.141E-02	 5.703E-01	 0.000E+00	 0.000E+00	 0.000E+00	 0.000E+00	 2.512E+03	 5.370E+00	 2.868E+02	 8.954E+04	 0.000E+00	 0.000E+00
    0.8750	 1.000E+01	 1.175E-02	 5.874E-01	 0.000E+00	 0.000E+00	 0.000E+00	 0.000E+00	 2.512E+03	 5.375E+00	 2.868E+02	 8.954E+04	 0.000E+00	 0.000E+00
    0.9000	 1.000E+01	 1.209E-02	 6.045E-01	 0.000E+00	 0.000E+00	 0.000E+00	 0.000E+00	 2.512E+03	 5.381E+00	 2.868E+02	 8.954E+04	 0.000E+00	 0.000E+00
    0.9250	 1.000E+01	 1.243E-02	 6.216E-01	 0.000E+00	 0.000E+00	 0.000E+00	 0.000E+00	 2.512E+03	 5.387E+00	 2.868E+02	 8.954E+04	 0.000E+00	 0.000E+00
    0.9500	 1.000E+01	 1.278E-02	 6.388E-01	 0.000E+00	 0.000E+00	 0.000E+00	 0.000E+00	 2.512E+03	 5.392E+00	 2.868E+02	 8.954E+04	 0.000E+00	 0.000E+00
    0.9750	 1.000E+01	 1.312E-02	 6.559E-01	 0.000E+00	 0.000E+00	 0.000E+00	 0.000E+00	 2.512E+03	 5.398E+00	 2.868E+02	 8.954E+04	 0.000E+00	 0.000E+00
    1.0000	 1.000E+01	 1.346E-02	 6.731E-01	 0.000E+00	 0.000E+00	 0.000E+00	 0.000E+00	 2.512E+03	 5.403E+00	 2.868E+02	 8.954E+04	 0.000E+00	 0.000E+00
    1.0250	 1.000E+01	 1.381E-02	 6.903E-01	 0.000E+00	 0.000E+00	 0.000E+00	 0.000E+00	 2.512E+03	 5.409E+00	 2.868E+02	 8.954E+04	 0.000E+00	 0.000E+00
    1.0500	 1.000E+01	 1.415E-02	 7.075E-01	 0.000E+00	 0.000E+00	 0.000E+00	 0.000E+00	 2.512E+03	 5.414E+00	 2.868E+02	 8.954E+04	 0.000E+00	 0.000E+00
    1.0750	 1.000E+01	 1.450E-02	 7.248E-01	 0.000E+00	 0.000E+00	 0.000E+00	 0.000E+00	 2.512E+03	 5.420E+00	 2.868E+02	 8.954E+04	 0.000E+00	 0.000E+00
    1.1000	 1.000E+01	 1.484E-02	 7.420E-01	 0.000E+00	 0.000E+00	 0.000E+00	 0.000E+00	 2.512E+03	 5.425E+00	 2.868E+02	 8.954E+04	 0.000E+00	 0.000E+00
    1.1250	 1.000E+01	 1.519E-02	 7.593E-01	 0.000E+00	 0.000E+00	 0.000E+00	 0.000E+00	 2.512E+03	 5.431E+00	 2.868E+02	 8.954E+04	 0.000E+00	 0.000E+00
    1.1500	 1.000E+01	 1.553E-02	 7.766E-01	 0.000E+00	 0.000E+00	 0.000E+00	 0.000E+00	 2.512E+03	 5.436E+00	 2.868E+02	 8.954E+04	 0.000E+00	 0.000E+00
    1.1750	 1.000E+01	 1.588E-02	 7.939E-01	 0.000E+00	 0.000E+00	 0.000E+00	 0.000E+00	 2.512E+03	 5.442E+00	 2.868E+02	 8.954E+04	 0.000E+00	 0.000E+00
    1.2000	 1.000E+01	 1.622E-02	 8.112E-01	 0.000E+00	 0.000E+00	 0.000E+00	 0.000E+00	 2.512E+03	 5.447E+00	 2.868E+02	 8.954E+04	 0.000E+00	 0.000E+00
    1.2250	 1.000E+01	 1.657E-02	 8.286E-01	 0.000E+00	 0.000E+00	 0.000E+00	 0.000E+00	 2.512E+03	 5.453E+00	 2.868E+02	 8.954E+04	 0.000E+00	 0.000E+00
    1.2500	 1.000E+01	 1.692E-02	 8.459E-01	 0.000E+00	 0.000E+00	 0.000E+00	 0.000E+00	 2.512E+03	 5.458E+00	 2.868E+02	 8.954E+04	 0.000E+00	 0.000E+00
    1.2750	 1.000E+01	 1.727E-02	 8.633E-01	 0.000E+00	 0.000E+00	 0.000E+00	 0.000E+00	 2.512E+03	 5.464E+00	 2.868E+02	 8.954E+04	 0.000E+00	 0.000E+00
    1.3000	 1.000E+01	 1.761E-02	 8.807E-01	 0.000E+00	 0.000E+00	 0.000E+00	 0.000E+00	 2.512E+03	 5.469E+00	 2.868E+02	 8.954E+04	 0.000E+00	 0.000E+00
    1.3250	 1.000E+01	 1.796E-02	 8.981E-01	 0.000E+00	 0.000E+00	 0.000E+00	 0.000E+00	 2.512E+03	 5.475E+00	 2.868E+02	 8.954E+04	 0.000E+00	 0.000E+00
    1.3500	 1.000E+01	 1.831E-02	 9.155E-01	 0.000E+00	 0.000E+00	 0.000E+00	 0.000E+00	 2.512E+03	 5.480E+00	 2.868E+02	 8.954E+04	 0.000E+00	 0.000E+00
    1.3750	 1.000E+01	 1.866E-02	 9.330E-01	 0.000E+00	 0.000E+00	 0.000E+00	 0.000E+00	 2.512E+03	 5.486E+00	 2.868E+02	 8.954E+04	 0.000E+00	 0.000E+00
    1.4000	 1.000E+01	 1.901E-02	 9.504E-01	 0.000E+00	 0.000E+00	 0.000E+00	 0.000E+00	 2.512E+03	 5.492E+00	 2.868E+02	 8.954E+04	 0.000E+00	 0.000E+00
    1.4250	 1.000E+01	 1.936E-02	 9.679E-01	 0.000E+00	 0.000E+00	 0.000E+00	 0.000E+00	 2.512E+03	 5.497E+00	 2.868E+02	 8.954E+04	 0.000E+00	 0.000E+00
    1.4500	 1.000E+01	 1.971E-02	 9.854E-01	 0.000E+00	 0.000E+00	 0.000E+00	 0.000E+00	 2.512E+03	 5.503E+00	 2.868E+02	 8.954E+04	 0.000E+00	 0.000E+00
    1.4750	 1.000E+01	 2.006E-02	 1.003E+00	 0.000E+00	 0.000E+00	 0.000E+00	 0.000E+00	 2.512E+03	 5.509E+00	 2.868E+02	 8.954E+04	 0.000E+00	 0.000E+00
    1.5000	 1.000E+01	 2.041E-02	 1.020E+00	 0.000E+00	 0.000E+00	 0.000E+00	 0.000E+00	 2.512E+03	 5.514E+00	 2.868E+02	 8.954E+04	 0.000E+00	 0.000E+00
    1.5250	 1.000E+01	 2.076E-02	 1.038E+00	 0.000E+00	 0.000E+00	 0.000E+00	 0.000E+00	 2.512E+03	 5.520E+00	 2.868E+02	 8.954E+04	 0.000E+00	 0.000E+00
    1.5500	 1.000E+01	 2.111E-02	 1.056E+00	 0.000E+00	 0.000E+00	 0.000E+00	 0.000E+00	 2.512E+03	 5.526E+00	 2.868E+02	 8.954E+04	 0.000E+00	 0.000E+00
    1.5750	 1.000E+01	 2.146E-02	 1.073E+00	 0.000E+00	 0.000E+00	 0.000E+00	 0.000E+00	 2.512E+03	 5.531E+00	 2.868E+02	 8.954E+04	 0.000E+00	 0.000E+00
    1.6000	 1.000E+01	 2.182E-02	 1.091E+00	 0.000E+00	 0.000E+00	 0.000E+00	 0.000E+00	 2.512E+03	 5.537E+00	 2.868E+02	 8.954E+04	 0.000E+00	 0.000E+00
    1.6250	 1.000E+01	 2.217E-02	 1.108E+00	 0.000E+00	 0.000E+00	 0.000E+00	 0.000E+00	 2.512E+03	 5.543E+00	 2.868E+02	 8.954E+04	 0.000E+00	 0.000E+00
    1.6500	 1.000E+01	 2.252E-02	 1.126E+00	 0.000E+00	 0.000E+00	 0.000E+00	 0.000E+00	 2.512E+03	 5.549E+00	 2.868E+02	 8.954E+04	 0.000E+00	 0.000E+00
    1.6750	 1.000E+01	 2.288E-02	 1.144E+00	 0.000E+00	 0.000E+00	 0.000E+00	 0.000E+00	 2.512E+03	 5.554E+00	 2.868E+02	 8.954E+04	 0.000E+00	 0.000E+00
    1.7000	 1.000E+01	 2.323E-02	 1.161E+00	 0.000E+00	 0.000E+00	 0.000E+00	 0.000E+00	 2.512E+03	 5.560E+00	 2.868E+02	 8.954E+04	 0.000E+00	 0.000E+00
    1.7250	 1.000E+01	 2.358E-02	 1.179E+00	 0.000E+00	 0.000E+00	 0.000E+00	 0.000E+00	 2.512E+03	 5.566E+00	 2.868E+02	 8.954E+04	 0.000E+00	 0.000E+00
    1.7500	 1.000E+01	 2.394E-02	 1.197E+00	 0.000E+00	 0.000E+00	 0.000E+00	 0.000E+00	 2.512E+03	 5.572E+00	 2.868E+02	 8.954E+04	 0.000E+00	 0.000E+00
    1.7750	 1.000E+01	 2.429E-02	 1.215E+00	 0.000E+00	 0.000E+00	 0.000E+00	 0.000E+00	 2.512E+03	 5.578E+00	 2.868E+02	 8.954E+04	 0.000E+00	 0.000E+00
    1.8000	 1.000E+01	 2.465E-02	 1.232E+00	 0.000E+00	 0.000E+00	 0.000E+00	 0.000E+00	 2.512E+03	 5.584E+00	 2.868E+02	 8.954E+04	 0.000E+00	 0.000E+00
    1.8250	 1.000E+01	 2.500E-02	 1.250E+00	 0.000E+00	 0.000E+00	 0.000E+00	 0.000E+00	 2.512E+03	 5.589E+00	 2.868E+02	 8.954E+04	 0.000E+00	 0.000E+00
    1.8500	 1.000E+01	 2.536E-02	 1.268E+00	 0.000E+00	 0.000E+00	 0.000E+00	 0.000E+00	 2.512E+03	 5.595E+00	 2.868E+02	 8.954E+04	 0.000E+00	 0.000E+00
    1.8750	 1.000E+01	 2.571E-02	 1.286E+00	 0.000E+00	 0.000E+00	 0.000E+00	 0.000E+00	 2.512E+03	 5.601E+00	 2.868E+02	 8.954E+04	 0.000E+00	 0.000E+00
    1.9000	 1.000E+01	 2.607E-02	 1.304E+00	 0.000E+00	 0.000E+00	 0.000E+00	 0.000E+00	 2.512E+03	 5.607E+00	 2.868E+02	 8.954E+04	 0.000E+00	 0.000E+00
    1.9250	 1.000E+01	 2.643E-02	 1.321E+00	 0.000E+00	 0.000E+00	 0.000E+00	 0.000E+00	 2.512E+03	 5.613E+00	 2.868E+02	 8.954E+04	 0.000E+00	 0.000E+00
    1.9500	 1.000E+01	 2.679E-02	 1.339E+00	 0.000E+00	 0.000E+00	 0.000E+00	 0.000E+00	 2.512E+03	 5.619E+00	 2.868E+02	 8.954E+04	 0.000E+00	 0.000E+00
    1.9750	 1.000E+01	 2.714E-02	 1.357E+00	 0.000E+00	 0.000E+00	 0.000E+00	 0.000E+00	 2.512E+03	 5.625E+00	 2.868E+02	 8.954E+04	 0.000E+00	 0.000E+00
    2.0000	 1.000E+01	 2.750E-02	 1.375E+00	 0.000E+00	 0.000E+00	 0.000E+00	 0.000E+00	 2.512E+03	 5.631E+00	 2.868E+02	 8.954E+04	 0.000E+00	 0.000E+00
    2.0250	 1.000E+01	 2.786E-02	 1.393E+00	 0.000E+00	 0.000E+00	 0.000E+00	 0.000E+00	 2.512E+03	 5.637E+00	 2.868E+02	 8.954E+04	 0.000E+00	 0.000E+00
    2.0500	 1.000E+01	 2.822E-02	 1.411E+00	 0.000E+00	 0.000E+00	 0.000E+00	 0.000E+00	 2.512E+03	 5.643E+00	 2.868E+02	 8.954E+04	 0.000E+00	 0.000E+00
    2.0750	 1.000E+01	 2.858E-02	 1.429E+00	 0.000E+00	 0.000E+00	 0.000E+00	 0.000E+00	 2.512E+03	 5.649E+00	 2.868E+02	 8.954E+04	 0.000E+00	 0.000E+00
    2.1000	 1.000E+01	 2.894E-02	 1.447E+00	 0.000E+00	 0.000E+00	 0.000E+00	 0.000E+00	 2.512E+03	 5.655E+00	 2.868E+02	 8.954E+04	 0.000E+00	 0.000E+00
    2.1250	 1.000E+01	 2.930E-02	 1.465E+00	 0.000E+00	 0.000E+00	 0.000E+00	 0.000E+00	 2.512E+03	 5.661E+00	 2.868E+02	 8.954E+04	 0.000E+00	 0.000E+00
    2.1500	 1.000E+01	 2.966E-02	 1.483E+00	 0.000E+00	 0.000E+00	 0.000E+00	 0.000E+00	 2.512E+03	 5.667E+00	 2.868E+02	 8.954E+04	 0.000E+00	 0.000E+00
    2.1750	 1.000E+01	 3.002E-02	 1.501E+00	 0.000E+00	 0.000E+00	 0.000E+00	 0.000E+00	 2.512E+03	 5.673E+00	 2.868E+02	 8.955E+04	 0.000E+00	 0.000E+00
    2.2000	 1.000E+01	 3.038E-02	 1.519E+00	 0.000E+00	 0.000E+00	 0.000E+00	 0.000E+00	 2.512E+03	 5.679E+00	 2.868E+02	 8.955E+04	 0.000E+00	 0.000E+00
    2.2250	 1.000E+01	 3.074E-02	 1.537E+00	 0.000E+00	 0.000E+00	 0.000E+00	 0.000E+00	 2.513E+03	 5.685E+00	 2.868E+02	 8.955E+04	 0.000E+00	 0.000E+00
    2.2500	 1.000E+01	 3.110E-02	 1.555E+00	 0.000E+00	 0.000E+00	 0.000E+00	 0.000E+00	 2.513E+03	 5.691E+00	 2.868E+02	 8.955E+04	 0.000E+00	 0.000E+00
    2.2750	 1.000E+01	 3.147E-02	 1.573E+00	 0.000E+00	 0.000E+00	 0.000E+00	 0.000E+00	 2.513E+03	 5.697E+00	 2.868E+02	 8.955E+04	 0.000E+00	 0.000E+00
    2.3000	 1.000E+01	 3.183E-02	 1.591E+00	 0.000E+00	 0.000E+00	 0.000E+00	 0.000E+00	 2.513E+03	 5.703E+00	 2.868E+02	 8.955E+04	 0.000E+00	 0.000E+00
    2.3250	 1.000E+01	 3.219E-02	 1.610E+00	 0.000E+00	 0.000E+00	 0.000E+00	 0.000E+00	 2.513E+03	 5.709E+00	 2.868E+02	 8.955E+04	 0.000E+00	 0.000E+00
    2.3500	 1.000E+01	 3.256E-02	 1.628E+00	 0.000E+00	 0.000E+00	 0.000E+00	 0.000E+00	 2.513E+03	 5.715E+00	 2.868E+02	 8.955E+04	 0.000E+00	 0.000E+00
    2.3750	 1.000E+01	 3.292E-02	 1.646E+00	 0.000E+00	 0.000E+00	 0.000E+00	 0.000E+00	 2.513E+03	 5.722E+00	 2.868E+02	 8.955E+04	 0.000E+00	 0.000E+00
    2.4000	 1.000E+01	 3.328E-02	 1.664E+00	 0.000E+00	 0.000E+00	 0.000E+00	 0.000E+00	 2.513E+03	 5.728E+00	 2.868E+02	 8.955E+04	 0.000E+00	 0.000E+00
    2.4250	 1.000E+01	 3.365E-02	 1.682E+00	 0.000E+00	 0.000E+00	 0.000E+00	 0.000E+00	 2.513E+03	 5.734E+00	 2.868E+02	 8.955E+04	 0.000E+00	 0.000E+00
    2.4500	 1.000E+01	 3.401E-02	 1.701E+00	 0.000E+00	 0.000E+00	 0.000E+00	 0.000E+00	 2.513E+03	 5.740E+00	 2.868E+02	 8.955E+04	 0.000E+00	 0.000E+00
    2.4750	 1.000E+01	 3.438E-02	 1.719E+00	 0.000E+00	 0.000E+00	 0.000E+00	 0.000E+00	 2.513E+03	 5.746E+00	 2.868E+02	 8.955E+04	 0.000E+00	 0.000E+00
    2.5000	 1.000E+01	 3.475E-02	 1.737E+00	 0.000E+00	 0.000E+00	 0.000E+00	 0.000E+00	 2.513E+03	 5.752E+00	 2.868E+02	 8.955E+04	 0.000E+00	 0.000E+00
    2.5250	 1.000E+01	 3.511E-02	 1.756E+00	 0.000E+00	 0.000E+00	 0.000E+00	 0.000E+00	 2.513E+03	 5.758E+00	 2.868E+02	 8.955E+04	 0.000E+00	 0.000E+00
    2.5500	 1.000E+01	 3.548E-02	 1.774E+00	 0.000E+00	 0.000E+00	 0.000E+00	 0.000E+00	 2.513E+03	 5.764E+00	 2.868E+02	 8.955E+04	 0.000E+00	 0.000E+00
    2.5750	 1.000E+01	 3.585E-02	 1.792E+00	 0.000E+00	 0.000E+00	 0.000E+00	 0.000E+00	 2.513E+03	 5.770E+00	 2.868E+02	 8.955E+04	 0.000E+00	 0.000E+00
    2.6000	 1.000E+01	 3.621E-02	 1.811E+00	 0.000E+00	 0.000E+00	 0.000E+00	 0.000E+00	 2.513E+03	 5.776E+00	 2.868E+02	 8.955E+04	 0.000E+00	 0.000E+00
    2.6250	 1.000E+01	 3.658E-02	 1.829E+00	 0.000E+00	 0.000E+00	 0.000E+00	 0.000E+00	 2.513E+03	 5.783E+00	 2.868E+02	 8.955E+04	 0.000E+00	 0.000E+00
    2.6500	 1.000E+01	 3.695E-02	 1.847E+00	 0.000E+00	 0.000E+00	 0.000E+00	 0.000E+00	 2.513E+03	 5.789E+00	 2.868E+02	 8.955E+04	 0.000E+00	 0.000E+00
    2.6750	 1.000E+01	 3.732E-02	 1.866E+00	 0.000E+00	 0.000E+00	 0.000E+00	 0.000E+00	 2.513E+03	 5.795E+00	 2.868E+02	 8.955E+04	 0.000E+00	 0.000E+00
    2.7000	 1.000E+01	 3.769E-02	 1.884E+00	 0.000E+00	 0.000E+00	 0.000E+00	 0.000E+00	 2.513E+03	 5.801E+00	 2.868E+02	 8.955E+04	 0.000E+00	 0.000E+00
    2.7250	 1.000E+01	 3.806E-02	 1.903E+00	 0.000E+00	 0.000E+00	 0.000E+00	 0.000E+00	 2.513E+03	 5.807E+00	 2.868E+02	 8.955E+04	 0.000E+00	 0.000E+00
    2.7500	 1.000E+01	 3.843E-02	 1.921E+00	 0.000E+00	 0.000E+00	 0.000E+00	 0.000E+00	 2.513E+03	 5.813E+00	 2.868E+02	 8.955E+04	 0.000E+00	 0.000E+00
    2.7750	 1.000E+01	 3.880E-02	 1.940E+00	 0.000E+00	 0.000E+00	 0.000E+00	 0.000E+00	 2.513E+03	 5.819E+00	 2.868E+02	 8.955E+04	 0.000E+00	 0.000E+00
    2.8000	 1.000E+01	 3.917E-02	 1.958E+00	 0.000E+00	 0.000E+00	 0.000E+00	 0.000E+00	 2.513E+03	 5.825E+00	 2.868E+02	 8.955E+04	 0.000E+00	 0.000E+00
    2.8250	 1.000E+01	 3.954E-02	 1.977E+00	 0.000E+00	 0.000E+00	 0.000E+00	 0.000E+00	 2.513E+03	 5.832E+00	 2.868E+02	 8.955E+04	 0.000E+00	 0.000E+00
    2.8500	 1.000E+01	 3.991E-02	 1.995E+00	 0.000E+00	 0.000E+00	 0.000E+00	 0.000E+00	 2.513E+03	 5.838E+00	 2.868E+02	 8.955E+04	 0.000E+00	 0.000E+00
    2.8750	 1.000E+01	 4.028E-02	 2.014E+00	 0.000E+00	 0.000E+00	 0.000E+00	 0.000E+00	 2.513E+03	 5.844E+00	 2.868E+02	 8.955E+04	 0.000E+00	 0.000E+00
    2.9000	 1.000E+01	 4.065E-02	 2.033E+00	 0.000E+00	 0.000E+00	 0.000E+00	 0.000E+00	 2.513E+03	 5.850E+00	 2.868E+02	 8.955E+04	 0.000E+00	 0.000E+00
    2.9250	 1.000E+01	 4.103E-02	 2.051E+00	 0.000E+00	 0.000E+00	 0.000E+00	 0.000E+00	 2.513E+03	 5.856E+00	 2.868E+02	 8.955E+04	 0.000E+00	 0.000E+00
    2.9500	 1.000E+01	 4.140E-02	 2.070E+00	 0.000E+00	 0.000E+00	 0.000E+00	 0.000E+00	 2.513E+03	 5.862E+00	 2.868E+02	 8.956E+04	 0.000E+00	 0.000E+00
    2.9750	 1.000E+01	 4.177E-02	 2.089E+00	 0.000E+00	 0.000E+00	 0.000E+00	 0.000E+00	 2.513E+03	 5.868E+00	 2.868E+02	 8.956E+04	 0.000E+00	 0.000E+00
    3.0000	 1.000E+01	 4.214E-02	 2.107E+00	 0.000E+00	 0.000E+00	 0.000E+00	 0.000E+00	 2.514E+03	 5.875E+00	 2.868E+02	 8.956E+04	 0.000E+00	 0.000E+00
    3.0250	 1.000E+01	 4.252E-02	 2.126E+00	 0.000E+00	 0.000E+00	 0.000E+00	 0.000E+00	 2.514E+03	 5.881E+00	 2.868E+02	 8.956E+04	 0.000E+00	 0.000E+00
    3.0500	 1.000E+01	 4.289E-02	 2.145E+00	 0.000E+00	 0.000E+00	 0.000E+00	 0.000E+00	 2.514E+03	 5.887E+00	 2.868E+02	 8.956E+04	 0.000E+00	 0.000E+00
    3.0750	 1.000E+01	 4.327E-02	 2.163E+00	 0.000E+00	 0.000E+00	 0.000E+00	 0.000E+00	 2.514E+03	 5.893E+00	 2.868E+02	 8.956E+04	 0.000E+00	 0.000E+00
    3.1000	 1.000E+01	 4.364E-02	 2.182E+00	 0.000E+00	 0.000E+00	 0.000E+00	 0.000E+00	 2.514E+03	 5.899E+00	 2.868E+02	 8.956E+04	 0.000E+00	 0.000E+00
    3.1250	 1.000E+01	 4.402E-02	 2.201E+00	 0.000E+00	 0.000E+00	 0.000E+00	 0.000E+00	 2.514E+03	 5.905E+00	 2.868E+02	 8.956E+04	 0.000E+00	 0.000E+00
    3.1500	 1.000E+01	 4.440E-02	 2.220E+00	 0.000E+00	 0.000E+00	 0.000E+00	 0.000E+00	 2.514E+03	 5.912E+00	 2.868E+02	 8.956E+04	 0.000E+00	 0.000E+00
    3.1750	 1.000E+01	 4.477E-02	 2.239E+00	 0.000E+00	 0.000E+00	 0.000E+00	 0.000E+00	 2.514E+03	 5.918E+00	 2.868E+02	 8.956E+04	 0.000E+00	 0.000E+00
    3.2000	 1.000E+01	 4.515E-02	 2.257E+00	 0.000E+00	 0.000E+00	 0.000E+00	 0.000E+00	 2.514E+03	 5.924E+00	 2.868E+02	 8.956E+04	 0.000E+00	 0.000E+00
    3.2250	 1.000E+01	 4.553E-02	 2.276E+00	 0.000E+00	 0.000E+00	 0.000E+00	 0.000E+00	 2.514E+03	 5.930E+00	 2.868E+02	 8.956E+04	 0.000E+00	 0.000E+00
    3.2500	 1.000E+01	 4.590E-02	 2.295E+00	 0.000E+00	 0.000E+00	 0.000E+00	 0.000E+00	 2.514E+03	 5.936E+00	 2.868E+02	 8.956E+04	 0.000E+00	 0.000E+00
    3.2750	 1.000E+01	 4.628E-02	 2.314E+00	 0.000E+00	 0.000E+00	 0.000E+00	 0.000E+00	 2.514E+03	 5.943E+00	 2.868E+02	 8.956E+04	 0.000E+00	 0.000E+00
    3.3000	 1.000E+01	 4.666E-02	 2.333E+00	 0.000E+00	 0.000E+00	 0.000E+00	 0.000E+00	 2.514E+03	 5.949E+00	 2.868E+02	 8.956E+04	 0.000E+00	 0.000E+00
    3.3250	 1.000E+01	 4.704E-02	 2.352E+00	 0.000E+00	 0.000E+00	 0.000E+00	 0.000E+00	 2.514E+03	 5.955E+00	 2.868E+02	 8.956E+04	 0.000E+00	 0.000E+00
    3.3500	 1.000E+01	 4.742E-02	 2.371E+00	 0.000E+00	 0.000E+00	 0.000E+00	 0.000E+00	 2.514E+03	 5.961E+00	 2.868E+02	 8.956E+04	 0.000E+00	 0.000E+00
    3.3750	 1.000E+01	 4.780E-02	 2.390E+00	 0.000E+00	 0.000E+00	 0.000E+00	 0.000E+00	 2.514E+03	 5.968E+00	 2.868E+02	 8.956E+04	 0.000E+00	 0.000E+00
    3.4000	 1.000E+01	 4.818E-02	 2.409E+00	 0.000E+00	 0.000E+00	 0.000E+00	 0.000E+00	 2.514E+03	 5.974E+00	 2.868E+02	 8.956E+04	 0.000E+00	 0.000E+00
    3.4250	 1.000E+01	 4.856E-02	 2.428E+00	 0.000E+00	 0.000E+00	 0.000E+00	 0.000E+00	 2.514E+03	 5.980E+00	 2.868E+02	 8.956E+04	 0.000E+00	 0.000E+00
    3.4500	 1.000E+01	 4.894E-02	 2.447E+00	 0.000E+00	 0.000E+00	 0.000E+00	 0.000E+00	 2.514E+03	 5.986E+00	 2.868E+02	 8.956E+04	 0.000E+00	 0.000E+00
    3.4750	 1.000E+01	 4.932E-02	 2.466E+00	 0.000E+00	 0.000E+00	 0.000E+00	 0.000E+00	 2.514E+03	 5.993E+00	 2.868E+02	 8.956E+04	 0.000E+00	 0.000E+00
    3.5000	 1.000E+01	 4.970E-02	 2.485E+00	 0.000E+00	 0.000E+00	 0.000E+00	 0.000E+00	 2.514E+03	 5.999E+00	 2.868E+02	 8.956E+04	 0.000E+00	 0.000E+00
    3.5250	 1.000E+01	 5.008E-02	 2.504E+00	 0.000E+00	 0.000E+00	 0.000E+00	 0.000E+00	 2.514E+03	 6.005E+00	 2.868E+02	 8.956E+04	 0.000E+00	 0.000E+00
    3.5500	 1.000E+01	 5.047E-02	 2.523E+00	 0.000E+00	 0.000E+00	 0.000E+00	 0.000E+00	 2.514E+03	 6.012E+00	 2.868E+02	 8.957E+04	 0.000E+00	 0.000E+00
    3.5750	 1.000E+01	 5.085E-02	 2.542E+00	 0.000E+00	 0.000E+00	 0.000E+00	 0.000E+00	 2.514E+03	 6.018E+00	 2.868E+02	 8.957E+04	 0.000E+00	 0.000E+00
    3.6000	 1.000E+01	 5.123E-02	 2.562E+00	 0.000E+00	 0.000E+00	 0.000E+00	 0.000E+00	 2.514E+03	 6.024E+00	 2.868E+02	 8.957E+04	 0.000E+00	 0.000E+00
    3.6250	 1.000E+01	 5.161E-02	 2.581E+00	 0.000E+00	 0.000E+00	 0.000E+00	 0.000E+00	 2.515E+03	 6.031E+00	 2.868E+02	 8.957E+04	 0.000E+00	 0.000E+00
    3.6500	 1.000E+01	 5.200E-02	 2.600E+00	 0.000E+00	 0.000E+00	 0.000E+00	 0.000E+00	 2.515E+03	 6.037E+00	 2.868E+02	 8.957E+04	 0.000E+00	 0.000E+00
    3.6750	 1.000E+01	 5.238E-02	 2.619E+00	 0.000E+00	 0.000E+00	 0.000E+00	 0.000E+00	 2.515E+03	 6.043E+00	 2.868E+02	 8.957E+04	 0.000E+00	 0.000E+00
    3.7000	 1.000E+01	 5.277E-02	 2.638E+00	 0.000E+00	 0.000E+00	 0.000E+00	 0.000E+00	 2.515E+03	 6.050E+00	 2.868E+02	 8.957E+04	 0.000E+00	 0.000E+00
    3.7250	 1.000E+01	 5.315E-02	 2.658E+00	 0.000E+00	 0.000E+00	 0.000E+00	 0.000E+00	 2.515E+03	 6.056E+00	 2.868E+02	 8.957E+04	 0.000E+00	 0.000E+00
    3.7500	 1.000E+01	 5.354E-02	 2.677E+00	 0.000E+00	 0.000E+00	 0.000E+00	 0.000E+00	 2.515E+03	 6.062E+00	 2.868E+02	 8.957E+04	 0.000E+00	 0.000E+00
    3.7750	 1.000E+01	 5.392E-02	 2.696E+00	 0.000E+00	 0.000E+00	 0.000E+00	 0.000E+00	 2.515E+03	 6.069E+00	 2.868E+02	 8.957E+04	 0.000E+00	 0.000E+00
    3.8000	 1.000E+01	 5.431E-02	 2.716E+00	 0.000E+00	 0.000E+00	 0.000E+00	 0.000E+00	 2.515E+03	 6.075E+00	 2.868E+02	 8.957E+04	 0.000E+00	 0.000E+00
    3.8250	 1.000E+01	 5.470E-02	 2.735E+00	 0.000E+00	 0.000E+00	 0.000E+00	 0.000E+00	 2.515E+03	 6.082E+00	 2.868E+02	 8.957E+04	 0.000E+00	 0.000E+00
    3.8500	 1.000E+01	 5.509E-02	 2.754E+00	 0.000E+00	 0.000E+00	 0.000E+00	 0.000E+00	 2.515E+03	 6.088E+00	 2.868E+02	 8.957E+04	 0.000E+00	 0.000E+00
    3.8750	 1.000E+01	 5.547E-02	 2.774E+00	 0.000E+00	 0.000E+00	 0.000E+00	 0.000E+00	 2.515E+03	 6.094E+00	 2.868E+02	 8.957E+04	 0.000E+00	 0.000E+00
    3.9000	 1.000E+01	 5.586E-02	 2.793E+00	 0.000E+00	 0.000E+00	 0.000E+00	 0.000E+00	 2.515E+03	 6.101E+00	 2.868E+02	 8.957E+04	 0.000E+00	 0.000E+00
    3.9250	 1.000E+01	 5.625E-02	 2.812E+00	 0.000E+00	 0.000E+00	 0.000E+00	 0.000E+00	 2.515E+03	 6.107E+00	 2.868E+02	 8.957E+04	 0.000E+00	 0.000E+00
    3.9500	 1.000E+01	 5.664E-02	 2.832E+00	 0.000E+00	 0.000E+00	 0.000E+00	 0.000E+00	 2.515E+03	 6.114E+00	 2.868E+02	 8.957E+04	 0.000E+00	 0.000E+00
    3.9750	 1.000E+01	 5.703E-02	 2.851E+00	 0.000E+00	 0.000E+00	 0.000E+00	 0.000E+00	 2.515E+03	 6.120E+00	 2.868E+02	 8.957E+04	 0.000E+00	 0.000E+00
    4.0000	 1.000E+01	 5.742E-02	 2.871E+00	 0.000E+00	 0.000E+00	 0.000E+00	 0.000E+00	 2.515E+03	 6.127E+00	 2.868E+02	 8.957E+04	 0.000E+00	 0.000E+00
    4.0250	 1.000E+01	 5.781E-02	 2.890E+00	 0.000E+00	 0.000E+00	 0.000E+00	 0.000E+00	 2.515E+03	 6.133E+00	 2.868E+02	 8.957E+04	 0.000E+00	 0.000E+00
    4.0500	 1.000E+01	 5.820E-02	 2.910E+00	 0.000E+00	 0.000E+00	 0.000E+00	 0.000E+00	 2.515E+03	 6.140E+00	 2.868E+02	 8.958E+04	 0.000E+00	 0.000E+00
    4.0750	 1.000E+01	 5.859E-02	 2.929E+00	 0.000E+00	 0.000E+00	 0.000E+00	 0.000E+00	 2.515E+03	 6.146E+00	 2.868E+02	 8.958E+04	 0.000E+00	 0.000E+00
    4.1000	 1.000E+01	 5.898E-02	 2.949E+00	 0.000E+00	 0.000E+00	 0.000E+00	 0.000E+00	 2.515E+03	 6.153E+00	 2.868E+02	 8.958E+04	 0.000E+00	 0.000E+00
    4.1250	 1.000E+01	 5.937E-02	 2.969E+00	 0.000E+00	 0.000E+00	 0.000E+00	 0.000E+00	 2.516E+03	 6.159E+00	 2.868E+02	 8.958E+04	 0.000E+00	 0.000E+00
    4.1500	 1.000E+01	 5.976E-02	 2.988E+00	 0.000E+00	 0.000E+00	 0.000E+00	 0.000E+00	 2.516E+03	 6.166E+00	 2.868E+02	 8.958E+04	 0.000E+00	 0.000E+00
    4.1750	 1.000E+01	 6.016E-02	 3.008E+00	 0.000E+00	 0.000E+00	 0.000E+00	 0.000E+00	 2.516E+03	 6.172E+00	 2.868E+02	 8.958E+04	 0.000E+00	 0.000E+00
    4.2000	 1.000E+01	 6.055E-02	 3.027E+00	 0.000E+00	 0.000E+00	 0.000E+00	 0.000E+00	 2.516E+03	 6.179E+00	 2.868E+02	 8.958E+04	 0.000E+00	 0.000E+00
    4.2250	 1.000E+01	 6.094E-02	 3.047E+00	 0.000E+00	 0.000E+00	 0.000E+00	 0.000E+00	 2.516E+03	 6.185E+00	 2.868E+02	 8.958E+04	 0.000E+00	 0.000E+00
    4.2500	 1.000E+01	 6.134E-02	 3.067E+00	 0.000E+00	 0.000E+00	 0.000E+00	 0.000E+00	 2.516E+03	 6.192E+00	 2.868E+02	 8.958E+04	 0.000E+00	 0.000E+00
    4.2750	 1.000E+01	 6.173E-02	 3.087E+00	 0.000E+00	 0.000E+00	 0.000E+00	 0.000E+00	 2.516E+03	 6.198E+00	 2.868E+02	 8.958E+04	 0.000E+00	 0.000E+00
    4.3000	 1.000E+01	 6.213E-02	 3.106E+00	 0.000E+00	 0.000E+00	 0.000E+00	 0.000E+00	 2.516E+03	 6.205E+00	 2.868E+02	 8.958E+04	 0.000E+00	 0.000E+00
    4.3250	 1.000E+01	 6.252E-02	 3.126E+00	 0.000E+00	 0.000E+00	 0.000E+00	 0.000E+00	 2.516E+03	 6.211E+00	 2.868E+02	 8.958E+04	 0.000E+00	 0.000E+00
    4.3500	 1.000E+01	 6.292E-02	 3.146E+00	 0.000E+00	 0.000E+00	 0.000E+00	 0.000E+00	 2.516E+03	 6.218E+00	 2.868E+02	 8.958E+04	 0.000E+00	 0.000E+00
    4.3750	 1.000E+01	 6.331E-02	 3.166E+00	 0.000E+00	 0.000E+00	 0.000E+00	 0.000E+00	 2.516E+03	 6.224E+00	 2.868E+02	 8.958E+04	 0.000E+00	 0.000E+00
    4.4000	 1.000E+01	 6.371E-02	 3.185E+00	 0.000E+00	 0.000E+00	 0.000E+00	 0.000E+00	 2.516E+03	 6.231E+00	 2.868E+02	 8.958E+04	 0.000E+00	 0.000E+00
    4.4250	 1.000E+01	 6.411E-02	 3.205E+00	 0.000E+00	 0.000E+00	 0.000E+00	 0.000E+00	 2.516E+03	 6.237E+00	 2.868E+02	 8.958E+04	 0.000E+00	 0.000E+00
    4.4500	 1.000E+01	 6.450E-02	 3.225E+00	 0.000E+00	 0.000E+00	 0.000E+00	 0.000E+00	 2.516E+03	 6.244E+00	 2.868E+02	 8.958E+04	 0.000E+00	 0.000E+00
    4.4750	 1.000E+01	 6.490E-02	 3.245E+00	 0.000E+00	 0.000E+00	 0.000E+00	 0.000E+00	 2.516E+03	 6.250E+00	 2.868E+02	 8.959E+04	 0.000E+00	 0.000E+00
    4.5000	 1.000E+01	 6.530E-02	 3.265E+00	 0.000E+00	 0.000E+00	 0.000E+00	 0.000E+00	 2.516E+03	 6.257E+00	 2.869E+02	 8.959E+04	 0.000E+00	 0.000E+00
    4.5250	 1.000E+01	 6.570E-02	 3.285E+00	 0.000E+00	 0.000E+00	 0.000E+00	 0.000E+00	 2.516E+03	 6.264E+00	 2.869E+02	 8.959E+04	 0.000E+00	 0.000E+00
    4.5500	 1.000E+01	 6.610E-02	 3.305E+00	 0.000E+00	 0.000E+00	 0.000E+00	 0.000E+00	 2.516E+03	 6.270E+00	 2.869E+02	 8.959E+04	 0.000E+00	 0.000E+00
    4.5750	 1.000E+01	 6.649E-02	 3.325E+00	 0.000E+00	 0.000E+00	 0.000E+00	 0.000E+00	 2.517E+03	 6.277E+00	 2.869E+02	 8.959E+04	 0.000E+00	 0.000E+00
    4.6000	 1.000E+01	 6.689E-02	 3.345E+00	 0.000E+00	 0.000E+00	 0.000E+00	 0.000E+00	 2.517E+03	 6.283E+00	 2.869E+02	 8.959E+04	 0.000E+00	 0.000E+00
    4.6250	 1.000E+01	 6.729E-02	 3.365E+00	 0.000E+00	 0.000E+00	 0.000E+00	 0.000E+00	 2.517E+03	 6.290E+00	 2.869E+02	 8.959E+04	 0.000E+00	 0.000E+00
    4.6500	 1.000E+01	 6.770E-02	 3.385E+00	 0.000E+00	 0.000E+00	 0.000E+00	 0.000E+00	 2.517E+03	 6.297E+00	 2.869E+02	 8.959E+04	 0.000E+00	 0.000E+00
    4.6750	 1.000E+01	 6.810E-02	 3.405E+00	 0.000E+00	 0.000E+00	 0.000E+00	 0.000E+00	 2.517E+03	 6.303E+00	 2.869E+02	 8.959E+04	 0.000E+00	 0.000E+00
    4.7000	 1.000E+01	 6.850E-02	 3.425E+00	 0.000E+00	 0.000E+00	 0.000E+00	 0.000E+00	 2.517E+03	 6.310E+00	 2.869E+02	 8.959E+04	 0.000E+00	 0.000E+00
    4.7250	 1.000E+01	 6.890E-02	 3.445E+00	 0.000E+00	 0.000E+00	 0.000E+00	 0.000E+00	 2.517E+03	 6.317E+00	 2.869E+02	 8.959E+04	 0.000E+00	 0.000E+00