
Predictions were generated on 14-Mar-2023 at 14:32:42 using FAST.Farm (v0.01.02a-jmj, 04-Jul-2017), compiled as a 64-bit application using single precision and with OpenMP
 linked with  NWTC Subroutine Library

Description from the FAST.Farm input file: Sample FAST.Farm input file

Time                	RtAxsXT1            	RtAxsYT1            	RtAxsZT1            	RtPosXT1            	RtPosYT1            	RtPosZT1            	YawErrT1            	TIAmbT1             	CtT1N01             	CtT1N02             	CtT1N03             	CtT1N04             	CtT1N05             	CtT1N06             	CtT1N07             	CtT1N08             	CtT1N09             	CtT1N10             	CtT1N11             	CtT1N12             	CtT1N13             	CtT1N14             	CtT1N15             	CtT1N16             	CtT1N17             	CtT1N18             	CtT1N19             	CtT1N20             	WkAxsXT1D1          	WkAxsXT1D2          	WkAxsXT1D3          	WkAxsXT1D4          	WkAxsXT1D5          	WkAxsXT1D6          	WkAxsXT1D7          	WkAxsYT1D1          	WkAxsYT1D2          	WkAxsYT1D3          	WkAxsYT1D4          	WkAxsYT1D5          	WkAxsYT1D6          	WkAxsYT1D7          	WkAxsZT1D1          	WkAxsZT1D2          	WkAxsZT1D3          	WkAxsZT1D4          	WkAxsZT1D5          	WkAxsZT1D6          	WkAxsZT1D7          	WkPosXT1D1          	WkPosXT1D2          	WkPosXT1D3          	WkPosXT1D4          	WkPosXT1D5          	WkPosXT1D6          	WkPosXT1D7          	WkPosYT1D1          	WkPosYT1D2          	WkPosYT1D3          	WkPosYT1D4          	WkPosYT1D5          	WkPosYT1D6          	WkPosYT1D7          	WkPosZT1D1          	WkPosZT1D2          	WkPosZT1D3          	WkPosZT1D4          	WkPosZT1D5          	WkPosZT1D6          	WkPosZT1D7          	WkDfVxT1N01D1       	WkDfVxT1N02D1       	WkDfVxT1N03D1       	WkDfVxT1N04D1       	WkDfVxT1N05D1       	WkDfVxT1N06D1       	WkDfVxT1N07D1       	WkDfVxT1N08D1       	WkDfVxT1N09D1       	WkDfVxT1N10D1       	WkDfVxT1N11D1       	WkDfVxT1N12D1       	WkDfVxT1N13D1       	WkDfVxT1N14D1       	WkDfVxT1N15D1       	WkDfVxT1N16D1       	WkDfVxT1N17D1       	WkDfVxT1N18D1       	WkDfVxT1N19D1       	WkDfVxT1N20D1       	WkDfVxT1N01D2       	WkDfVxT1N02D2       	WkDfVxT1N03D2       	WkDfVxT1N04D2       	WkDfVxT1N05D2       	WkDfVxT1N06D2       	WkDfVxT1N07D2       	WkDfVxT1N08D2       	WkDfVxT1N09D2       	WkDfVxT1N10D2       	WkDfVxT1N11D2       	WkDfVxT1N12D2       	WkDfVxT1N13D2       	WkDfVxT1N14D2       	WkDfVxT1N15D2       	WkDfVxT1N16D2       	WkDfVxT1N17D2       	WkDfVxT1N18D2       	WkDfVxT1N19D2       	WkDfVxT1N20D2       	WkDfVxT1N01D3       	WkDfVxT1N02D3       	WkDfVxT1N03D3       	WkDfVxT1N04D3       	WkDfVxT1N05D3       	WkDfVxT1N06D3       	WkDfVxT1N07D3       	WkDfVxT1N08D3       	WkDfVxT1N09D3       	WkDfVxT1N10D3       	WkDfVxT1N11D3       	WkDfVxT1N12D3       	WkDfVxT1N13D3       	WkDfVxT1N14D3       	WkDfVxT1N15D3       	WkDfVxT1N16D3       	WkDfVxT1N17D3       	WkDfVxT1N18D3       	WkDfVxT1N19D3       	WkDfVxT1N20D3       	WkDfVxT1N01D4       	WkDfVxT1N02D4       	WkDfVxT1N03D4       	WkDfVxT1N04D4       	WkDfVxT1N05D4       	WkDfVxT1N06D4       	WkDfVxT1N07D4       	WkDfVxT1N08D4       	WkDfVxT1N09D4       	WkDfVxT1N10D4       	WkDfVxT1N11D4       	WkDfVxT1N12D4       	WkDfVxT1N13D4       	WkDfVxT1N14D4       	WkDfVxT1N15D4       	WkDfVxT1N16D4       	WkDfVxT1N17D4       	WkDfVxT1N18D4       	WkDfVxT1N19D4       	WkDfVxT1N20D4       	WkDfVxT1N01D5       	WkDfVxT1N02D5       	WkDfVxT1N03D5       	WkDfVxT1N04D5       	WkDfVxT1N05D5       	WkDfVxT1N06D5       	WkDfVxT1N07D5       	WkDfVxT1N08D5       	WkDfVxT1N09D5       	WkDfVxT1N10D5       	WkDfVxT1N11D5       	WkDfVxT1N12D5       	WkDfVxT1N13D5       	WkDfVxT1N14D5       	WkDfVxT1N15D5       	WkDfVxT1N16D5       	WkDfVxT1N17D5       	WkDfVxT1N18D5       	WkDfVxT1N19D5       	WkDfVxT1N20D5       	WkDfVxT1N01D6       	WkDfVxT1N02D6       	WkDfVxT1N03D6       	WkDfVxT1N04D6       	WkDfVxT1N05D6       	WkDfVxT1N06D6       	WkDfVxT1N07D6       	WkDfVxT1N08D6       	WkDfVxT1N09D6       	WkDfVxT1N10D6       	WkDfVxT1N11D6       	WkDfVxT1N12D6       	WkDfVxT1N13D6       	WkDfVxT1N14D6       	WkDfVxT1N15D6       	WkDfVxT1N16D6       	WkDfVxT1N17D6       	WkDfVxT1N18D6       	WkDfVxT1N19D6       	WkDfVxT1N20D6       	WkDfVxT1N01D7       	WkDfVxT1N02D7       	WkDfVxT1N03D7       	WkDfVxT1N04D7       	WkDfVxT1N05D7       	WkDfVxT1N06D7       	WkDfVxT1N07D7       	WkDfVxT1N08D7       	WkDfVxT1N09D7       	WkDfVxT1N10D7       	WkDfVxT1N11D7       	WkDfVxT1N12D7       	WkDfVxT1N13D7       	WkDfVxT1N14D7       	WkDfVxT1N15D7       	WkDfVxT1N16D7       	WkDfVxT1N17D7       	WkDfVxT1N18D7       	WkDfVxT1N19D7       	WkDfVxT1N20D7       	WkDfVrT1N01D1       	WkDfVrT1N02D1       	WkDfVrT1N03D1       	WkDfVrT1N04D1       	WkDfVrT1N05D1       	WkDfVrT1N06D1       	WkDfVrT1N07D1       	WkDfVrT1N08D1       	WkDfVrT1N09D1       	WkDfVrT1N10D1       	WkDfVrT1N11D1       	WkDfVrT1N12D1       	WkDfVrT1N13D1       	WkDfVrT1N14D1       	WkDfVrT1N15D1       	WkDfVrT1N16D1       	WkDfVrT1N17D1       	WkDfVrT1N18D1       	WkDfVrT1N19D1       	WkDfVrT1N20D1       	WkDfVrT1N01D2       	WkDfVrT1N02D2       	WkDfVrT1N03D2       	WkDfVrT1N04D2       	WkDfVrT1N05D2       	WkDfVrT1N06D2       	WkDfVrT1N07D2       	WkDfVrT1N08D2       	WkDfVrT1N09D2       	WkDfVrT1N10D2       	WkDfVrT1N11D2       	WkDfVrT1N12D2       	WkDfVrT1N13D2       	WkDfVrT1N14D2       	WkDfVrT1N15D2       	WkDfVrT1N16D2       	WkDfVrT1N17D2       	WkDfVrT1N18D2       	WkDfVrT1N19D2       	WkDfVrT1N20D2       	WkDfVrT1N01D3       	WkDfVrT1N02D3       	WkDfVrT1N03D3       	WkDfVrT1N04D3       	WkDfVrT1N05D3       	WkDfVrT1N06D3       	WkDfVrT1N07D3       	WkDfVrT1N08D3       	WkDfVrT1N09D3       	WkDfVrT1N10D3       	WkDfVrT1N11D3       	WkDfVrT1N12D3       	WkDfVrT1N13D3       	WkDfVrT1N14D3       	WkDfVrT1N15D3       	WkDfVrT1N16D3       	WkDfVrT1N17D3       	WkDfVrT1N18D3       	WkDfVrT1N19D3       	WkDfVrT1N20D3       	WkDfVrT1N01D4       	WkDfVrT1N02D4       	WkDfVrT1N03D4       	WkDfVrT1N04D4       	WkDfVrT1N05D4       	WkDfVrT1N06D4       	WkDfVrT1N07D4       	WkDfVrT1N08D4       	WkDfVrT1N09D4       	WkDfVrT1N10D4       	WkDfVrT1N11D4       	WkDfVrT1N12D4       	WkDfVrT1N13D4       	WkDfVrT1N14D4       	WkDfVrT1N15D4       	WkDfVrT1N16D4       	WkDfVrT1N17D4       	WkDfVrT1N18D4       	WkDfVrT1N19D4       	WkDfVrT1N20D4       	WkDfVrT1N01D5       	WkDfVrT1N02D5       	WkDfVrT1N03D5       	WkDfVrT1N04D5       	WkDfVrT1N05D5       	WkDfVrT1N06D5       	WkDfVrT1N07D5       	WkDfVrT1N08D5       	WkDfVrT1N09D5       	WkDfVrT1N10D5       	WkDfVrT1N11D5       	WkDfVrT1N12D5       	WkDfVrT1N13D5       	WkDfVrT1N14D5       	WkDfVrT1N15D5       	WkDfVrT1N16D5       	WkDfVrT1N17D5       	WkDfVrT1N18D5       	WkDfVrT1N19D5       	WkDfVrT1N20D5       	WkDfVrT1N01D6       	WkDfVrT1N02D6       	WkDfVrT1N03D6       	WkDfVrT1N04D6       	WkDfVrT1N05D6       	WkDfVrT1N06D6       	WkDfVrT1N07D6       	WkDfVrT1N08D6       	WkDfVrT1N09D6       	WkDfVrT1N10D6       	WkDfVrT1N11D6       	WkDfVrT1N12D6       	WkDfVrT1N13D6       	WkDfVrT1N14D6       	WkDfVrT1N15D6       	WkDfVrT1N16D6       	WkDfVrT1N17D6       	WkDfVrT1N18D6       	WkDfVrT1N19D6       	WkDfVrT1N20D6       	WkDfVrT1N01D7       	WkDfVrT1N02D7       	WkDfVrT1N03D7       	WkDfVrT1N04D7       	WkDfVrT1N05D7       	WkDfVrT1N06D7       	WkDfVrT1N07D7       	WkDfVrT1N08D7       	WkDfVrT1N09D7       	WkDfVrT1N10D7       	WkDfVrT1N11D7       	WkDfVrT1N12D7       	WkDfVrT1N13D7       	WkDfVrT1N14D7       	WkDfVrT1N15D7       	WkDfVrT1N16D7       	WkDfVrT1N17D7       	WkDfVrT1N18D7       	WkDfVrT1N19D7       	WkDfVrT1N20D7       	W1VAmbX             	W1VAmbY             	W1VAmbZ             	W1VDisX             	W1VDisY             	W1VDisZ             	RtAxsXT2            	RtAxsYT2            	RtAxsZT2            	RtPosXT2            	RtPosYT2            	RtPosZT2            	YawErrT2            	TIAmbT2             	CtT2N01             	CtT2N02             	CtT2N03             	CtT2N04             	CtT2N05             	CtT2N06             	CtT2N07             	CtT2N08             	CtT2N09             	CtT2N10             	CtT2N11             	CtT2N12             	CtT2N13             	CtT2N14             	CtT2N15             	CtT2N16             	CtT2N17             	CtT2N18             	CtT2N19             	CtT2N20             	WkAxsXT2D1          	WkAxsXT2D2          	WkAxsXT2D3          	WkAxsXT2D4          	WkAxsXT2D5          	WkAxsXT2D6          	WkAxsXT2D7          	WkAxsYT2D1          	WkAxsYT2D2          	WkAxsYT2D3          	WkAxsYT2D4          	WkAxsYT2D5          	WkAxsYT2D6          	WkAxsYT2D7          	WkAxsZT2D1          	WkAxsZT2D2          	WkAxsZT2D3          	WkAxsZT2D4          	WkAxsZT2D5          	WkAxsZT2D6          	WkAxsZT2D7          	WkPosXT2D1          	WkPosXT2D2          	WkPosXT2D3          	WkPosXT2D4          	WkPosXT2D5          	WkPosXT2D6          	WkPosXT2D7          	WkPosYT2D1          	WkPosYT2D2          	WkPosYT2D3          	WkPosYT2D4          	WkPosYT2D5          	WkPosYT2D6          	WkPosYT2D7          	WkPosZT2D1          	WkPosZT2D2          	WkPosZT2D3          	WkPosZT2D4          	WkPosZT2D5          	WkPosZT2D6          	WkPosZT2D7          	WkDfVxT2N01D1       	WkDfVxT2N02D1       	WkDfVxT2N03D1       	WkDfVxT2N04D1       	WkDfVxT2N05D1       	WkDfVxT2N06D1       	WkDfVxT2N07D1       	WkDfVxT2N08D1       	WkDfVxT2N09D1       	WkDfVxT2N10D1       	WkDfVxT2N11D1       	WkDfVxT2N12D1       	WkDfVxT2N13D1       	WkDfVxT2N14D1       	WkDfVxT2N15D1       	WkDfVxT2N16D1       	WkDfVxT2N17D1       	WkDfVxT2N18D1       	WkDfVxT2N19D1       	WkDfVxT2N20D1       	WkDfVxT2N01D2       	WkDfVxT2N02D2       	WkDfVxT2N03D2       	WkDfVxT2N04D2       	WkDfVxT2N05D2       	WkDfVxT2N06D2       	WkDfVxT2N07D2       	WkDfVxT2N08D2       	WkDfVxT2N09D2       	WkDfVxT2N10D2       	WkDfVxT2N11D2       	WkDfVxT2N12D2       	WkDfVxT2N13D2       	WkDfVxT2N14D2       	WkDfVxT2N15D2       	WkDfVxT2N16D2       	WkDfVxT2N17D2       	WkDfVxT2N18D2       	WkDfVxT2N19D2       	WkDfVxT2N20D2       	WkDfVxT2N01D3       	WkDfVxT2N02D3       	WkDfVxT2N03D3       	WkDfVxT2N04D3       	WkDfVxT2N05D3       	WkDfVxT2N06D3       	WkDfVxT2N07D3       	WkDfVxT2N08D3       	WkDfVxT2N09D3       	WkDfVxT2N10D3       	WkDfVxT2N11D3       	WkDfVxT2N12D3       	WkDfVxT2N13D3       	WkDfVxT2N14D3       	WkDfVxT2N15D3       	WkDfVxT2N16D3       	WkDfVxT2N17D3       	WkDfVxT2N18D3       	WkDfVxT2N19D3       	WkDfVxT2N20D3       	WkDfVxT2N01D4       	WkDfVxT2N02D4       	WkDfVxT2N03D4       	WkDfVxT2N04D4       	WkDfVxT2N05D4       	WkDfVxT2N06D4       	WkDfVxT2N07D4       	WkDfVxT2N08D4       	WkDfVxT2N09D4       	WkDfVxT2N10D4       	WkDfVxT2N11D4       	WkDfVxT2N12D4       	WkDfVxT2N13D4       	WkDfVxT2N14D4       	WkDfVxT2N15D4       	WkDfVxT2N16D4       	WkDfVxT2N17D4       	WkDfVxT2N18D4       	WkDfVxT2N19D4       	WkDfVxT2N20D4       	WkDfVxT2N01D5       	WkDfVxT2N02D5       	WkDfVxT2N03D5       	WkDfVxT2N04D5       	WkDfVxT2N05D5       	WkDfVxT2N06D5       	WkDfVxT2N07D5       	WkDfVxT2N08D5       	WkDfVxT2N09D5       	WkDfVxT2N10D5       	WkDfVxT2N11D5       	WkDfVxT2N12D5       	WkDfVxT2N13D5       	WkDfVxT2N14D5       	WkDfVxT2N15D5       	WkDfVxT2N16D5       	WkDfVxT2N17D5       	WkDfVxT2N18D5       	WkDfVxT2N19D5       	WkDfVxT2N20D5       	WkDfVxT2N01D6       	WkDfVxT2N02D6       	WkDfVxT2N03D6       	WkDfVxT2N04D6       	WkDfVxT2N05D6       	WkDfVxT2N06D6       	WkDfVxT2N07D6       	WkDfVxT2N08D6       	WkDfVxT2N09D6       	WkDfVxT2N10D6       	WkDfVxT2N11D6       	WkDfVxT2N12D6       	WkDfVxT2N13D6       	WkDfVxT2N14D6       	WkDfVxT2N15D6       	WkDfVxT2N16D6       	WkDfVxT2N17D6       	WkDfVxT2N18D6       	WkDfVxT2N19D6       	WkDfVxT2N20D6       	WkDfVxT2N01D7       	WkDfVxT2N02D7       	WkDfVxT2N03D7       	WkDfVxT2N04D7       	WkDfVxT2N05D7       	WkDfVxT2N06D7       	WkDfVxT2N07D7       	WkDfVxT2N08D7       	WkDfVxT2N09D7       	WkDfVxT2N10D7       	WkDfVxT2N11D7       	WkDfVxT2N12D7       	WkDfVxT2N13D7       	WkDfVxT2N14D7       	WkDfVxT2N15D7       	WkDfVxT2N16D7       	WkDfVxT2N17D7       	WkDfVxT2N18D7       	WkDfVxT2N19D7       	WkDfVxT2N20D7       	WkDfVrT2N01D1       	WkDfVrT2N02D1       	WkDfVrT2N03D1       	WkDfVrT2N04D1       	WkDfVrT2N05D1       	WkDfVrT2N06D1       	WkDfVrT2N07D1       	WkDfVrT2N08D1       	WkDfVrT2N09D1       	WkDfVrT2N10D1       	WkDfVrT2N11D1       	WkDfVrT2N12D1       	WkDfVrT2N13D1       	WkDfVrT2N14D1       	WkDfVrT2N15D1       	WkDfVrT2N16D1       	WkDfVrT2N17D1       	WkDfVrT2N18D1       	WkDfVrT2N19D1       	WkDfVrT2N20D1       	WkDfVrT2N01D2       	WkDfVrT2N02D2       	WkDfVrT2N03D2       	WkDfVrT2N04D2       	WkDfVrT2N05D2       	WkDfVrT2N06D2       	WkDfVrT2N07D2       	WkDfVrT2N08D2       	WkDfVrT2N09D2       	WkDfVrT2N10D2       	WkDfVrT2N11D2       	WkDfVrT2N12D2       	WkDfVrT2N13D2       	WkDfVrT2N14D2       	WkDfVrT2N15D2       	WkDfVrT2N16D2       	WkDfVrT2N17D2       	WkDfVrT2N18D2       	WkDfVrT2N19D2       	WkDfVrT2N20D2       	WkDfVrT2N01D3       	WkDfVrT2N02D3       	WkDfVrT2N03D3       	WkDfVrT2N04D3       	WkDfVrT2N05D3       	WkDfVrT2N06D3       	WkDfVrT2N07D3       	WkDfVrT2N08D3       	WkDfVrT2N09D3       	WkDfVrT2N10D3       	WkDfVrT2N11D3       	WkDfVrT2N12D3       	WkDfVrT2N13D3       	WkDfVrT2N14D3       	WkDfVrT2N15D3       	WkDfVrT2N16D3       	WkDfVrT2N17D3       	WkDfVrT2N18D3       	WkDfVrT2N19D3       	WkDfVrT2N20D3       	WkDfVrT2N01D4       	WkDfVrT2N02D4       	WkDfVrT2N03D4       	WkDfVrT2N04D4       	WkDfVrT2N05D4       	WkDfVrT2N06D4       	WkDfVrT2N07D4       	WkDfVrT2N08D4       	WkDfVrT2N09D4       	WkDfVrT2N10D4       	WkDfVrT2N11D4       	WkDfVrT2N12D4       	WkDfVrT2N13D4       	WkDfVrT2N14D4       	WkDfVrT2N15D4       	WkDfVrT2N16D4       	WkDfVrT2N17D4       	WkDfVrT2N18D4       	WkDfVrT2N19D4       	WkDfVrT2N20D4       	WkDfVrT2N01D5       	WkDfVrT2N02D5       	WkDfVrT2N03D5       	WkDfVrT2N04D5       	WkDfVrT2N05D5       	WkDfVrT2N06D5       	WkDfVrT2N07D5       	WkDfVrT2N08D5       	WkDfVrT2N09D5       	WkDfVrT2N10D5       	WkDfVrT2N11D5       	WkDfVrT2N12D5       	WkDfVrT2N13D5       	WkDfVrT2N14D5       	WkDfVrT2N15D5       	WkDfVrT2N16D5       	WkDfVrT2N17D5       	WkDfVrT2N18D5       	WkDfVrT2N19D5       	WkDfVrT2N20D5       	WkDfVrT2N01D6       	WkDfVrT2N02D6       	WkDfVrT2N03D6       	WkDfVrT2N04D6       	WkDfVrT2N05D6       	WkDfVrT2N06D6       	WkDfVrT2N07D6       	WkDfVrT2N08D6       	WkDfVrT2N09D6       	WkDfVrT2N10D6       	WkDfVrT2N11D6       	WkDfVrT2N12D6       	WkDfVrT2N13D6       	WkDfVrT2N14D6       	WkDfVrT2N15D6       	WkDfVrT2N16D6       	WkDfVrT2N17D6       	WkDfVrT2N18D6       	WkDfVrT2N19D6       	WkDfVrT2N20D6       	WkDfVrT2N01D7       	WkDfVrT2N02D7       	WkDfVrT2N03D7       	WkDfVrT2N04D7       	WkDfVrT2N05D7       	WkDfVrT2N06D7       	WkDfVrT2N07D7       	WkDfVrT2N08D7       	WkDfVrT2N09D7       	WkDfVrT2N10D7       	WkDfVrT2N11D7       	WkDfVrT2N12D7       	WkDfVrT2N13D7       	WkDfVrT2N14D7       	WkDfVrT2N15D7       	WkDfVrT2N16D7       	WkDfVrT2N17D7       	WkDfVrT2N18D7       	WkDfVrT2N19D7       	WkDfVrT2N20D7       	W2VAmbX             	W2VAmbY             	W2VAmbZ             	W2VDisX             	W2VDisY             	W2VDisZ             	RtAxsXT3            	RtAxsYT3            	RtAxsZT3            	RtPosXT3            	RtPosYT3            	RtPosZT3            	YawErrT3            	TIAmbT3             	CtT3N01             	CtT3N02             	CtT3N03             	CtT3N04             	CtT3N05             	CtT3N06             	CtT3N07             	CtT3N08             	CtT3N09             	CtT3N10             	CtT3N11             	CtT3N12             	CtT3N13             	CtT3N14             	CtT3N15             	CtT3N16             	CtT3N17             	CtT3N18             	CtT3N19             	CtT3N20             	WkAxsXT3D1          	WkAxsXT3D2          	WkAxsXT3D3          	WkAxsXT3D4          	WkAxsXT3D5          	WkAxsXT3D6          	WkAxsXT3D7          	WkAxsYT3D1          	WkAxsYT3D2          	WkAxsYT3D3          	WkAxsYT3D4          	WkAxsYT3D5          	WkAxsYT3D6          	WkAxsYT3D7          	WkAxsZT3D1          	WkAxsZT3D2          	WkAxsZT3D3          	WkAxsZT3D4          	WkAxsZT3D5          	WkAxsZT3D6          	WkAxsZT3D7          	WkPosXT3D1          	WkPosXT3D2          	WkPosXT3D3          	WkPosXT3D4          	WkPosXT3D5          	WkPosXT3D6          	WkPosXT3D7          	WkPosYT3D1          	WkPosYT3D2          	WkPosYT3D3          	WkPosYT3D4          	WkPosYT3D5          	WkPosYT3D6          	WkPosYT3D7          	WkPosZT3D1          	WkPosZT3D2          	WkPosZT3D3          	WkPosZT3D4          	WkPosZT3D5          	WkPosZT3D6          	WkPosZT3D7          	WkDfVxT3N01D1       	WkDfVxT3N02D1       	WkDfVxT3N03D1       	WkDfVxT3N04D1       	WkDfVxT3N05D1       	WkDfVxT3N06D1       	WkDfVxT3N07D1       	WkDfVxT3N08D1       	WkDfVxT3N09D1       	WkDfVxT3N10D1       	WkDfVxT3N11D1       	WkDfVxT3N12D1       	WkDfVxT3N13D1       	WkDfVxT3N14D1       	WkDfVxT3N15D1       	WkDfVxT3N16D1       	WkDfVxT3N17D1       	WkDfVxT3N18D1       	WkDfVxT3N19D1       	WkDfVxT3N20D1       	WkDfVxT3N01D2       	WkDfVxT3N02D2       	WkDfVxT3N03D2       	WkDfVxT3N04D2       	WkDfVxT3N05D2       	WkDfVxT3N06D2       	WkDfVxT3N07D2       	WkDfVxT3N08D2       	WkDfVxT3N09D2       	WkDfVxT3N10D2       	WkDfVxT3N11D2       	WkDfVxT3N12D2       	WkDfVxT3N13D2       	WkDfVxT3N14D2       	WkDfVxT3N15D2       	WkDfVxT3N16D2       	WkDfVxT3N17D2       	WkDfVxT3N18D2       	WkDfVxT3N19D2       	WkDfVxT3N20D2       	WkDfVxT3N01D3       	WkDfVxT3N02D3       	WkDfVxT3N03D3       	WkDfVxT3N04D3       	WkDfVxT3N05D3       	WkDfVxT3N06D3       	WkDfVxT3N07D3       	WkDfVxT3N08D3       	WkDfVxT3N09D3       	WkDfVxT3N10D3       	WkDfVxT3N11D3       	WkDfVxT3N12D3       	WkDfVxT3N13D3       	WkDfVxT3N14D3       	WkDfVxT3N15D3       	WkDfVxT3N16D3       	WkDfVxT3N17D3       	WkDfVxT3N18D3       	WkDfVxT3N19D3       	WkDfVxT3N20D3       	WkDfVxT3N01D4       	WkDfVxT3N02D4       	WkDfVxT3N03D4       	WkDfVxT3N04D4       	WkDfVxT3N05D4       	WkDfVxT3N06D4       	WkDfVxT3N07D4       	WkDfVxT3N08D4       	WkDfVxT3N09D4       	WkDfVxT3N10D4       	WkDfVxT3N11D4       	WkDfVxT3N12D4       	WkDfVxT3N13D4       	WkDfVxT3N14D4       	WkDfVxT3N15D4       	WkDfVxT3N16D4       	WkDfVxT3N17D4       	WkDfVxT3N18D4       	WkDfVxT3N19D4       	WkDfVxT3N20D4       	WkDfVxT3N01D5       	WkDfVxT3N02D5       	WkDfVxT3N03D5       	WkDfVxT3N04D5       	WkDfVxT3N05D5       	WkDfVxT3N06D5       	WkDfVxT3N07D5       	WkDfVxT3N08D5       	WkDfVxT3N09D5       	WkDfVxT3N10D5       	WkDfVxT3N11D5       	WkDfVxT3N12D5       	WkDfVxT3N13D5       	WkDfVxT3N14D5       	WkDfVxT3N15D5       	WkDfVxT3N16D5       	WkDfVxT3N17D5       	WkDfVxT3N18D5       	WkDfVxT3N19D5       	WkDfVxT3N20D5       	WkDfVxT3N01D6       	WkDfVxT3N02D6       	WkDfVxT3N03D6       	WkDfVxT3N04D6       	WkDfVxT3N05D6       	WkDfVxT3N06D6       	WkDfVxT3N07D6       	WkDfVxT3N08D6       	WkDfVxT3N09D6       	WkDfVxT3N10D6       	WkDfVxT3N11D6       	WkDfVxT3N12D6       	WkDfVxT3N13D6       	WkDfVxT3N14D6       	WkDfVxT3N15D6       	WkDfVxT3N16D6       	WkDfVxT3N17D6       	WkDfVxT3N18D6       	WkDfVxT3N19D6       	WkDfVxT3N20D6       	WkDfVxT3N01D7       	WkDfVxT3N02D7       	WkDfVxT3N03D7       	WkDfVxT3N04D7       	WkDfVxT3N05D7       	WkDfVxT3N06D7       	WkDfVxT3N07D7       	WkDfVxT3N08D7       	WkDfVxT3N09D7       	WkDfVxT3N10D7       	WkDfVxT3N11D7       	WkDfVxT3N12D7       	WkDfVxT3N13D7       	WkDfVxT3N14D7       	WkDfVxT3N15D7       	WkDfVxT3N16D7       	WkDfVxT3N17D7       	WkDfVxT3N18D7       	WkDfVxT3N19D7       	WkDfVxT3N20D7       	WkDfVrT3N01D1       	WkDfVrT3N02D1       	WkDfVrT3N03D1       	WkDfVrT3N04D1       	WkDfVrT3N05D1       	WkDfVrT3N06D1       	WkDfVrT3N07D1       	WkDfVrT3N08D1       	WkDfVrT3N09D1       	WkDfVrT3N10D1       	WkDfVrT3N11D1       	WkDfVrT3N12D1       	WkDfVrT3N13D1       	WkDfVrT3N14D1       	WkDfVrT3N15D1       	WkDfVrT3N16D1       	WkDfVrT3N17D1       	WkDfVrT3N18D1       	WkDfVrT3N19D1       	WkDfVrT3N20D1       	WkDfVrT3N01D2       	WkDfVrT3N02D2       	WkDfVrT3N03D2       	WkDfVrT3N04D2       	WkDfVrT3N05D2       	WkDfVrT3N06D2       	WkDfVrT3N07D2       	WkDfVrT3N08D2       	WkDfVrT3N09D2       	WkDfVrT3N10D2       	WkDfVrT3N11D2       	WkDfVrT3N12D2       	WkDfVrT3N13D2       	WkDfVrT3N14D2       	WkDfVrT3N15D2       	WkDfVrT3N16D2       	WkDfVrT3N17D2       	WkDfVrT3N18D2       	WkDfVrT3N19D2       	WkDfVrT3N20D2       	WkDfVrT3N01D3       	WkDfVrT3N02D3       	WkDfVrT3N03D3       	WkDfVrT3N04D3       	WkDfVrT3N05D3       	WkDfVrT3N06D3       	WkDfVrT3N07D3       	WkDfVrT3N08D3       	WkDfVrT3N09D3       	WkDfVrT3N10D3       	WkDfVrT3N11D3       	WkDfVrT3N12D3       	WkDfVrT3N13D3       	WkDfVrT3N14D3       	WkDfVrT3N15D3       	WkDfVrT3N16D3       	WkDfVrT3N17D3       	WkDfVrT3N18D3       	WkDfVrT3N19D3       	WkDfVrT3N20D3       	WkDfVrT3N01D4       	WkDfVrT3N02D4       	WkDfVrT3N03D4       	WkDfVrT3N04D4       	WkDfVrT3N05D4       	WkDfVrT3N06D4       	WkDfVrT3N07D4       	WkDfVrT3N08D4       	WkDfVrT3N09D4       	WkDfVrT3N10D4       	WkDfVrT3N11D4       	WkDfVrT3N12D4       	WkDfVrT3N13D4       	WkDfVrT3N14D4       	WkDfVrT3N15D4       	WkDfVrT3N16D4       	WkDfVrT3N17D4       	WkDfVrT3N18D4       	WkDfVrT3N19D4       	WkDfVrT3N20D4       	WkDfVrT3N01D5       	WkDfVrT3N02D5       	WkDfVrT3N03D5       	WkDfVrT3N04D5       	WkDfVrT3N05D5       	WkDfVrT3N06D5       	WkDfVrT3N07D5       	WkDfVrT3N08D5       	WkDfVrT3N09D5       	WkDfVrT3N10D5       	WkDfVrT3N11D5       	WkDfVrT3N12D5       	WkDfVrT3N13D5       	WkDfVrT3N14D5       	WkDfVrT3N15D5       	WkDfVrT3N16D5       	WkDfVrT3N17D5       	WkDfVrT3N18D5       	WkDfVrT3N19D5       	WkDfVrT3N20D5       	WkDfVrT3N01D6       	WkDfVrT3N02D6       	WkDfVrT3N03D6       	WkDfVrT3N04D6       	WkDfVrT3N05D6       	WkDfVrT3N06D6       	WkDfVrT3N07D6       	WkDfVrT3N08D6       	WkDfVrT3N09D6       	WkDfVrT3N10D6       	WkDfVrT3N11D6       	WkDfVrT3N12D6       	WkDfVrT3N13D6       	WkDfVrT3N14D6       	WkDfVrT3N15D6       	WkDfVrT3N16D6       	WkDfVrT3N17D6       	WkDfVrT3N18D6       	WkDfVrT3N19D6       	WkDfVrT3N20D6       	WkDfVrT3N01D7       	WkDfVrT3N02D7       	WkDfVrT3N03D7       	WkDfVrT3N04D7       	WkDfVrT3N05D7       	WkDfVrT3N06D7       	WkDfVrT3N07D7       	WkDfVrT3N08D7       	WkDfVrT3N09D7       	WkDfVrT3N10D7       	WkDfVrT3N11D7       	WkDfVrT3N12D7       	WkDfVrT3N13D7       	WkDfVrT3N14D7       	WkDfVrT3N15D7       	WkDfVrT3N16D7       	WkDfVrT3N17D7       	WkDfVrT3N18D7       	WkDfVrT3N19D7       	WkDfVrT3N20D7       	W3VAmbX             	W3VAmbY             	W3VAmbZ             	W3VDisX             	W3VDisY             	W3VDisZ             