FAST.Farm Summary File

Predictions were generated on 14-Mar-2023 at 14:32:42 using FAST.Farm (v0.01.02a-jmj, 04-Jul-2017), compiled as a 64-bit application using single precision and with OpenMP
  compiled with
    NWTC Subroutine Library
    Super Controller (unknown version, unknown date)
    FASTWrapper (v1.00.00, 7-Feb-2017)
    WakeDynamics
    AWAE

Description from the FAST.Farm input file: Sample FAST.Farm input file

Ambient Wind:
  Ambient wind model: Multiple InflowWind Modules
  InflowWind module input file: .\inflowWind.dat

Wind Turbines: 3
  Turbine Number  Output Turbine Number      X          Y          Z   OpenFAST Time Step  OpenFAST SubCycles  OpenFAST Input File
        (-)                (-)              (m)        (m)        (m)          (S)             (-)                (-)
         1                 T1             975.000    975.000      0.000        0.02500          80          .\OpenFAST\T1\DTU_10MW_RWT.fst
         2                 T2            1983.000    975.000      0.000        0.02500          80          .\OpenFAST\T2\DTU_10MW_RWT.fst
         3                 T3            2991.000    975.000      0.000        0.02500          80          .\OpenFAST\T3\DTU_10MW_RWT.fst

Wake Dynamics Finite-Difference Grid: 40 Radii, 11 Planes
  Radial Node Number  Output Node Number    Radius
         (-)                (-)              (m) 
           0                N1               0.000
           1                N2               8.000
           2                N3              16.000
           3                N4              24.000
           4                N5              32.000
           5                N6              40.000
           6                 -              48.000
           7                N7              56.000
           8                 -              64.000
           9                N8              72.000
          10                 -              80.000
          11                N9              88.000
          12                 -              96.000
          13                N10            104.000
          14                 -             112.000
          15                N11            120.000
          16                N12            128.000
          17                N13            136.000
          18                N14            144.000
          19                N15            152.000
          20                 -             160.000
          21                N16            168.000
          22                 -             176.000
          23                 -             184.000
          24                N17            192.000
          25                 -             200.000
          26                 -             208.000
          27                 -             216.000
          28                N18            224.000
          29                 -             232.000
          30                 -             240.000
          31                 -             248.000
          32                 -             256.000
          33                N19            264.000
          34                 -             272.000
          35                 -             280.000
          36                 -             288.000
          37                 -             296.000
          38                 -             304.000
          39                N20            312.000

Wake Dynamics Parameters
  Cut-off (corner) frequency of the low-pass time-filter for the wake advection, deflection, and meandering model (Hz): 7.00000E-04
    ( low-pass time-filter parameter (-): 0.99124 )
  Calibrated parameter in the correction for wake deflection defining the horizontal offset at the rotor (m): 0
  Calibrated parameter in the correction for wake deflection defining the horizontal offset at the rotor scaled with yaw error (m/deg): 0.3
  Calibrated parameter in the correction for wake deflection defining the horizontal offset scaled with downstream distance (-):  0
  Calibrated parameter in the correction for wake deflection defining the horizontal offset scaled with downstream distance and yaw error (1/deg):  -4.00000E-03
  Calibrated parameter for near-wake correction (-): 1.8
  Calibrated parameter for the influence of ambient turbulence in the eddy viscosity (-):  5.00000E-02
  Calibrated parameter for the influence of the shear layer in the eddy viscosity (-):  1.60000E-02
  Calibrated parameter in the eddy viscosity filter function for ambient turbulence defining the transitional diameter fraction between the minimum and exponential regions (-):  0
  Calibrated parameter in the eddy viscosity filter function for ambient turbulence defining the transitional diameter fraction between the exponential and maximum regions (-):  1
  Calibrated parameter in the eddy viscosity filter function for ambient turbulence defining the value in the minimum region (-):  1
  Calibrated parameter in the eddy viscosity filter function for ambient turbulence defining the exponent in the exponential region (-):  1.00000E-02
  Calibrated parameter in the eddy viscosity filter function for the shear layer defining the transitional diameter fraction between the minimum and exponential regions (-):  3
  Calibrated parameter in the eddy viscosity filter function for the shear layer defining the transitional diameter fraction between the exponential and maximum regions (-): 25
  Calibrated parameter in the eddy viscosity filter function for the shear layer defining the functional value in the minimum region (-):  0.2
  Calibrated parameter in the eddy viscosity filter function for the shear layer defining the exponent in the exponential region (-):  0.1
  Wake diameter calculation model (-): 1
    ( rotor diameter )
  Calibrated parameter for wake diameter calculation (-): -         
  Spatial filter model for wake meandering (-): 3
    ( windowed jinc )
  Calibrated parameter for wake meandering (-): 1.9

Time Steps
  Component                        Time Step         Subcyles
    (-)                                (s)             (-)
  FAST.Farm (glue code)              2.0000             1
  Super Controller                   2.0000             1
  FAST Wrapper                       2.0000             1 (See table above for OpenFAST.)
  Wake Dynamics                      2.0000             1
  Ambient Wind and Array Effects     2.0000             1
  Low -resolution wind input         2.0000             1
  High-resolution wind input         0.1000            20
  Wind visualization output         50.0000            25^-1
  FAST.Farm output files             2.0000             1

Requested Channels in FAST.Farm Output Files: 1069
  Number     Name         Units
     0       Time          (s)
     1       RtAxsXT1      (-)           
     2       RtAxsYT1      (-)           
     3       RtAxsZT1      (-)           
     4       RtPosXT1      (m)           
     5       RtPosYT1      (m)           
     6       RtPosZT1      (m)           
     7       YawErrT1      (deg)         
     8       TIAmbT1       (percent)     
     9       CtT1N01       (-)           
    10       CtT1N02       (-)           
    11       CtT1N03       (-)           
    12       CtT1N04       (-)           
    13       CtT1N05       (-)           
    14       CtT1N06       (-)           
    15       CtT1N07       (-)           
    16       CtT1N08       (-)           
    17       CtT1N09       (-)           
    18       CtT1N10       (-)           
    19       CtT1N11       (-)           
    20       CtT1N12       (-)           
    21       CtT1N13       (-)           
    22       CtT1N14       (-)           
    23       CtT1N15       (-)           
    24       CtT1N16       (-)           
    25       CtT1N17       (-)           
    26       CtT1N18       (-)           
    27       CtT1N19       (-)           
    28       CtT1N20       (-)           
    29       WkAxsXT1D1    (-)           
    30       WkAxsXT1D2    (-)           
    31       WkAxsXT1D3    (-)           
    32       WkAxsXT1D4    (-)           
    33       WkAxsXT1D5    (-)           
    34       WkAxsXT1D6    (-)           
    35       WkAxsXT1D7    (-)           
    36       WkAxsYT1D1    (-)           
    37       WkAxsYT1D2    (-)           
    38       WkAxsYT1D3    (-)           
    39       WkAxsYT1D4    (-)           
    40       WkAxsYT1D5    (-)           
    41       WkAxsYT1D6    (-)           
    42       WkAxsYT1D7    (-)           
    43       WkAxsZT1D1    (-)           
    44       WkAxsZT1D2    (-)           
    45       WkAxsZT1D3    (-)           
    46       WkAxsZT1D4    (-)           
    47       WkAxsZT1D5    (-)           
    48       WkAxsZT1D6    (-)           
    49       WkAxsZT1D7    (-)           
    50       WkPosXT1D1    (m)           
    51       WkPosXT1D2    (m)           
    52       WkPosXT1D3    (m)           
    53       WkPosXT1D4    (m)           
    54       WkPosXT1D5    (m)           
    55       WkPosXT1D6    (m)           
    56       WkPosXT1D7    (m)           
    57       WkPosYT1D1    (m)           
    58       WkPosYT1D2    (m)           
    59       WkPosYT1D3    (m)           
    60       WkPosYT1D4    (m)           
    61       WkPosYT1D5    (m)           
    62       WkPosYT1D6    (m)           
    63       WkPosYT1D7    (m)           
    64       WkPosZT1D1    (m)           
    65       WkPosZT1D2    (m)           
    66       WkPosZT1D3    (m)           
    67       WkPosZT1D4    (m)           
    68       WkPosZT1D5    (m)           
    69       WkPosZT1D6    (m)           
    70       WkPosZT1D7    (m)           
    71       WkDfVxT1N01D1 (m/s)         
    72       WkDfVxT1N02D1 (m/s)         
    73       WkDfVxT1N03D1 (m/s)         
    74       WkDfVxT1N04D1 (m/s)         
    75       WkDfVxT1N05D1 (m/s)         
    76       WkDfVxT1N06D1 (m/s)         
    77       WkDfVxT1N07D1 (m/s)         
    78       WkDfVxT1N08D1 (m/s)         
    79       WkDfVxT1N09D1 (m/s)         
    80       WkDfVxT1N10D1 (m/s)         
    81       WkDfVxT1N11D1 (m/s)         
    82       WkDfVxT1N12D1 (m/s)         
    83       WkDfVxT1N13D1 (m/s)         
    84       WkDfVxT1N14D1 (m/s)         
    85       WkDfVxT1N15D1 (m/s)         
    86       WkDfVxT1N16D1 (m/s)         
    87       WkDfVxT1N17D1 (m/s)         
    88       WkDfVxT1N18D1 (m/s)         
    89       WkDfVxT1N19D1 (m/s)         
    90       WkDfVxT1N20D1 (m/s)         
    91       WkDfVxT1N01D2 (m/s)         
    92       WkDfVxT1N02D2 (m/s)         
    93       WkDfVxT1N03D2 (m/s)         
    94       WkDfVxT1N04D2 (m/s)         
    95       WkDfVxT1N05D2 (m/s)         
    96       WkDfVxT1N06D2 (m/s)         
    97       WkDfVxT1N07D2 (m/s)         
    98       WkDfVxT1N08D2 (m/s)         
    99       WkDfVxT1N09D2 (m/s)         
   100       WkDfVxT1N10D2 (m/s)         
   101       WkDfVxT1N11D2 (m/s)         
   102       WkDfVxT1N12D2 (m/s)         
   103       WkDfVxT1N13D2 (m/s)         
   104       WkDfVxT1N14D2 (m/s)         
   105       WkDfVxT1N15D2 (m/s)         
   106       WkDfVxT1N16D2 (m/s)         
   107       WkDfVxT1N17D2 (m/s)         
   108       WkDfVxT1N18D2 (m/s)         
   109       WkDfVxT1N19D2 (m/s)         
   110       WkDfVxT1N20D2 (m/s)         
   111       WkDfVxT1N01D3 (m/s)         
   112       WkDfVxT1N02D3 (m/s)         
   113       WkDfVxT1N03D3 (m/s)         
   114       WkDfVxT1N04D3 (m/s)         
   115       WkDfVxT1N05D3 (m/s)         
   116       WkDfVxT1N06D3 (m/s)         
   117       WkDfVxT1N07D3 (m/s)         
   118       WkDfVxT1N08D3 (m/s)         
   119       WkDfVxT1N09D3 (m/s)         
   120       WkDfVxT1N10D3 (m/s)         
   121       WkDfVxT1N11D3 (m/s)         
   122       WkDfVxT1N12D3 (m/s)         
   123       WkDfVxT1N13D3 (m/s)         
   124       WkDfVxT1N14D3 (m/s)         
   125       WkDfVxT1N15D3 (m/s)         
   126       WkDfVxT1N16D3 (m/s)         
   127       WkDfVxT1N17D3 (m/s)         
   128       WkDfVxT1N18D3 (m/s)         
   129       WkDfVxT1N19D3 (m/s)         
   130       WkDfVxT1N20D3 (m/s)         
   131       WkDfVxT1N01D4 (m/s)         
   132       WkDfVxT1N02D4 (m/s)         
   133       WkDfVxT1N03D4 (m/s)         
   134       WkDfVxT1N04D4 (m/s)         
   135       WkDfVxT1N05D4 (m/s)         
   136       WkDfVxT1N06D4 (m/s)         
   137       WkDfVxT1N07D4 (m/s)         
   138       WkDfVxT1N08D4 (m/s)         
   139       WkDfVxT1N09D4 (m/s)         
   140       WkDfVxT1N10D4 (m/s)         
   141       WkDfVxT1N11D4 (m/s)         
   142       WkDfVxT1N12D4 (m/s)         
   143       WkDfVxT1N13D4 (m/s)         
   144       WkDfVxT1N14D4 (m/s)         
   145       WkDfVxT1N15D4 (m/s)         
   146       WkDfVxT1N16D4 (m/s)         
   147       WkDfVxT1N17D4 (m/s)         
   148       WkDfVxT1N18D4 (m/s)         
   149       WkDfVxT1N19D4 (m/s)         
   150       WkDfVxT1N20D4 (m/s)         
   151       WkDfVxT1N01D5 (m/s)         
   152       WkDfVxT1N02D5 (m/s)         
   153       WkDfVxT1N03D5 (m/s)         
   154       WkDfVxT1N04D5 (m/s)         
   155       WkDfVxT1N05D5 (m/s)         
   156       WkDfVxT1N06D5 (m/s)         
   157       WkDfVxT1N07D5 (m/s)         
   158       WkDfVxT1N08D5 (m/s)         
   159       WkDfVxT1N09D5 (m/s)         
   160       WkDfVxT1N10D5 (m/s)         
   161       WkDfVxT1N11D5 (m/s)         
   162       WkDfVxT1N12D5 (m/s)         
   163       WkDfVxT1N13D5 (m/s)         
   164       WkDfVxT1N14D5 (m/s)         
   165       WkDfVxT1N15D5 (m/s)         
   166       WkDfVxT1N16D5 (m/s)         
   167       WkDfVxT1N17D5 (m/s)         
   168       WkDfVxT1N18D5 (m/s)         
   169       WkDfVxT1N19D5 (m/s)         
   170       WkDfVxT1N20D5 (m/s)         
   171       WkDfVxT1N01D6 (m/s)         
   172       WkDfVxT1N02D6 (m/s)         
   173       WkDfVxT1N03D6 (m/s)         
   174       WkDfVxT1N04D6 (m/s)         
   175       WkDfVxT1N05D6 (m/s)         
   176       WkDfVxT1N06D6 (m/s)         
   177       WkDfVxT1N07D6 (m/s)         
   178       WkDfVxT1N08D6 (m/s)         
   179       WkDfVxT1N09D6 (m/s)         
   180       WkDfVxT1N10D6 (m/s)         
   181       WkDfVxT1N11D6 (m/s)         
   182       WkDfVxT1N12D6 (m/s)         
   183       WkDfVxT1N13D6 (m/s)         
   184       WkDfVxT1N14D6 (m/s)         
   185       WkDfVxT1N15D6 (m/s)         
   186       WkDfVxT1N16D6 (m/s)         
   187       WkDfVxT1N17D6 (m/s)         
   188       WkDfVxT1N18D6 (m/s)         
   189       WkDfVxT1N19D6 (m/s)         
   190       WkDfVxT1N20D6 (m/s)         
   191       WkDfVxT1N01D7 (m/s)         
   192       WkDfVxT1N02D7 (m/s)         
   193       WkDfVxT1N03D7 (m/s)         
   194       WkDfVxT1N04D7 (m/s)         
   195       WkDfVxT1N05D7 (m/s)         
   196       WkDfVxT1N06D7 (m/s)         
   197       WkDfVxT1N07D7 (m/s)         
   198       WkDfVxT1N08D7 (m/s)         
   199       WkDfVxT1N09D7 (m/s)         
   200       WkDfVxT1N10D7 (m/s)         
   201       WkDfVxT1N11D7 (m/s)         
   202       WkDfVxT1N12D7 (m/s)         
   203       WkDfVxT1N13D7 (m/s)         
   204       WkDfVxT1N14D7 (m/s)         
   205       WkDfVxT1N15D7 (m/s)         
   206       WkDfVxT1N16D7 (m/s)         
   207       WkDfVxT1N17D7 (m/s)         
   208       WkDfVxT1N18D7 (m/s)         
   209       WkDfVxT1N19D7 (m/s)         
   210       WkDfVxT1N20D7 (m/s)         
   211       WkDfVrT1N01D1 (m/s)         
   212       WkDfVrT1N02D1 (m/s)         
   213       WkDfVrT1N03D1 (m/s)         
   214       WkDfVrT1N04D1 (m/s)         
   215       WkDfVrT1N05D1 (m/s)         
   216       WkDfVrT1N06D1 (m/s)         
   217       WkDfVrT1N07D1 (m/s)         
   218       WkDfVrT1N08D1 (m/s)         
   219       WkDfVrT1N09D1 (m/s)         
   220       WkDfVrT1N10D1 (m/s)         
   221       WkDfVrT1N11D1 (m/s)         
   222       WkDfVrT1N12D1 (m/s)         
   223       WkDfVrT1N13D1 (m/s)         
   224       WkDfVrT1N14D1 (m/s)         
   225       WkDfVrT1N15D1 (m/s)         
   226       WkDfVrT1N16D1 (m/s)         
   227       WkDfVrT1N17D1 (m/s)         
   228       WkDfVrT1N18D1 (m/s)         
   229       WkDfVrT1N19D1 (m/s)         
   230       WkDfVrT1N20D1 (m/s)         
   231       WkDfVrT1N01D2 (m/s)         
   232       WkDfVrT1N02D2 (m/s)         
   233       WkDfVrT1N03D2 (m/s)         
   234       WkDfVrT1N04D2 (m/s)         
   235       WkDfVrT1N05D2 (m/s)         
   236       WkDfVrT1N06D2 (m/s)         
   237       WkDfVrT1N07D2 (m/s)         
   238       WkDfVrT1N08D2 (m/s)         
   239       WkDfVrT1N09D2 (m/s)         
   240       WkDfVrT1N10D2 (m/s)         
   241       WkDfVrT1N11D2 (m/s)         
   242       WkDfVrT1N12D2 (m/s)         
   243       WkDfVrT1N13D2 (m/s)         
   244       WkDfVrT1N14D2 (m/s)         
   245       WkDfVrT1N15D2 (m/s)         
   246       WkDfVrT1N16D2 (m/s)         
   247       WkDfVrT1N17D2 (m/s)         
   248       WkDfVrT1N18D2 (m/s)         
   249       WkDfVrT1N19D2 (m/s)         
   250       WkDfVrT1N20D2 (m/s)         
   251       WkDfVrT1N01D3 (m/s)         
   252       WkDfVrT1N02D3 (m/s)         
   253       WkDfVrT1N03D3 (m/s)         
   254       WkDfVrT1N04D3 (m/s)         
   255       WkDfVrT1N05D3 (m/s)         
   256       WkDfVrT1N06D3 (m/s)         
   257       WkDfVrT1N07D3 (m/s)         
   258       WkDfVrT1N08D3 (m/s)         
   259       WkDfVrT1N09D3 (m/s)         
   260       WkDfVrT1N10D3 (m/s)         
   261       WkDfVrT1N11D3 (m/s)         
   262       WkDfVrT1N12D3 (m/s)         
   263       WkDfVrT1N13D3 (m/s)         
   264       WkDfVrT1N14D3 (m/s)         
   265       WkDfVrT1N15D3 (m/s)         
   266       WkDfVrT1N16D3 (m/s)         
   267       WkDfVrT1N17D3 (m/s)         
   268       WkDfVrT1N18D3 (m/s)         
   269       WkDfVrT1N19D3 (m/s)         
   270       WkDfVrT1N20D3 (m/s)         
   271       WkDfVrT1N01D4 (m/s)         
   272       WkDfVrT1N02D4 (m/s)         
   273       WkDfVrT1N03D4 (m/s)         
   274       WkDfVrT1N04D4 (m/s)         
   275       WkDfVrT1N05D4 (m/s)         
   276       WkDfVrT1N06D4 (m/s)         
   277       WkDfVrT1N07D4 (m/s)         
   278       WkDfVrT1N08D4 (m/s)         
   279       WkDfVrT1N09D4 (m/s)         
   280       WkDfVrT1N10D4 (m/s)         
   281       WkDfVrT1N11D4 (m/s)         
   282       WkDfVrT1N12D4 (m/s)         
   283       WkDfVrT1N13D4 (m/s)         
   284       WkDfVrT1N14D4 (m/s)         
   285       WkDfVrT1N15D4 (m/s)         
   286       WkDfVrT1N16D4 (m/s)         
   287       WkDfVrT1N17D4 (m/s)         
   288       WkDfVrT1N18D4 (m/s)         
   289       WkDfVrT1N19D4 (m/s)         
   290       WkDfVrT1N20D4 (m/s)         
   291       WkDfVrT1N01D5 (m/s)         
   292       WkDfVrT1N02D5 (m/s)         
   293       WkDfVrT1N03D5 (m/s)         
   294       WkDfVrT1N04D5 (m/s)         
   295       WkDfVrT1N05D5 (m/s)         
   296       WkDfVrT1N06D5 (m/s)         
   297       WkDfVrT1N07D5 (m/s)         
   298       WkDfVrT1N08D5 (m/s)         
   299       WkDfVrT1N09D5 (m/s)         
   300       WkDfVrT1N10D5 (m/s)         
   301       WkDfVrT1N11D5 (m/s)         
   302       WkDfVrT1N12D5 (m/s)         
   303       WkDfVrT1N13D5 (m/s)         
   304       WkDfVrT1N14D5 (m/s)         
   305       WkDfVrT1N15D5 (m/s)         
   306       WkDfVrT1N16D5 (m/s)         
   307       WkDfVrT1N17D5 (m/s)         
   308       WkDfVrT1N18D5 (m/s)         
   309       WkDfVrT1N19D5 (m/s)         
   310       WkDfVrT1N20D5 (m/s)         
   311       WkDfVrT1N01D6 (m/s)         
   312       WkDfVrT1N02D6 (m/s)         
   313       WkDfVrT1N03D6 (m/s)         
   314       WkDfVrT1N04D6 (m/s)         
   315       WkDfVrT1N05D6 (m/s)         
   316       WkDfVrT1N06D6 (m/s)         
   317       WkDfVrT1N07D6 (m/s)         
   318       WkDfVrT1N08D6 (m/s)         
   319       WkDfVrT1N09D6 (m/s)         
   320       WkDfVrT1N10D6 (m/s)         
   321       WkDfVrT1N11D6 (m/s)         
   322       WkDfVrT1N12D6 (m/s)         
   323       WkDfVrT1N13D6 (m/s)         
   324       WkDfVrT1N14D6 (m/s)         
   325       WkDfVrT1N15D6 (m/s)         
   326       WkDfVrT1N16D6 (m/s)         
   327       WkDfVrT1N17D6 (m/s)         
   328       WkDfVrT1N18D6 (m/s)         
   329       WkDfVrT1N19D6 (m/s)         
   330       WkDfVrT1N20D6 (m/s)         
   331       WkDfVrT1N01D7 (m/s)         
   332       WkDfVrT1N02D7 (m/s)         
   333       WkDfVrT1N03D7 (m/s)         
   334       WkDfVrT1N04D7 (m/s)         
   335       WkDfVrT1N05D7 (m/s)         
   336       WkDfVrT1N06D7 (m/s)         
   337       WkDfVrT1N07D7 (m/s)         
   338       WkDfVrT1N08D7 (m/s)         
   339       WkDfVrT1N09D7 (m/s)         
   340       WkDfVrT1N10D7 (m/s)         
   341       WkDfVrT1N11D7 (m/s)         
   342       WkDfVrT1N12D7 (m/s)         
   343       WkDfVrT1N13D7 (m/s)         
   344       WkDfVrT1N14D7 (m/s)         
   345       WkDfVrT1N15D7 (m/s)         
   346       WkDfVrT1N16D7 (m/s)         
   347       WkDfVrT1N17D7 (m/s)         
   348       WkDfVrT1N18D7 (m/s)         
   349       WkDfVrT1N19D7 (m/s)         
   350       WkDfVrT1N20D7 (m/s)         
   351       W1VAmbX       (m/s)         
   352       W1VAmbY       (m/s)         
   353       W1VAmbZ       (m/s)         
   354       W1VDisX       (m/s)         
   355       W1VDisY       (m/s)         
   356       W1VDisZ       (m/s)         
   357       RtAxsXT2      (-)           
   358       RtAxsYT2      (-)           
   359       RtAxsZT2      (-)           
   360       RtPosXT2      (m)           
   361       RtPosYT2      (m)           
   362       RtPosZT2      (m)           
   363       YawErrT2      (deg)         
   364       TIAmbT2       (percent)     
   365       CtT2N01       (-)           
   366       CtT2N02       (-)           
   367       CtT2N03       (-)           
   368       CtT2N04       (-)           
   369       CtT2N05       (-)           
   370       CtT2N06       (-)           
   371       CtT2N07       (-)           
   372       CtT2N08       (-)           
   373       CtT2N09       (-)           
   374       CtT2N10       (-)           
   375       CtT2N11       (-)           
   376       CtT2N12       (-)           
   377       CtT2N13       (-)           
   378       CtT2N14       (-)           
   379       CtT2N15       (-)           
   380       CtT2N16       (-)           
   381       CtT2N17       (-)           
   382       CtT2N18       (-)           
   383       CtT2N19       (-)           
   384       CtT2N20       (-)           
   385       WkAxsXT2D1    (-)           
   386       WkAxsXT2D2    (-)           
   387       WkAxsXT2D3    (-)           
   388       WkAxsXT2D4    (-)           
   389       WkAxsXT2D5    (-)           
   390       WkAxsXT2D6    (-)           
   391       WkAxsXT2D7    (-)           
   392       WkAxsYT2D1    (-)           
   393       WkAxsYT2D2    (-)           
   394       WkAxsYT2D3    (-)           
   395       WkAxsYT2D4    (-)           
   396       WkAxsYT2D5    (-)           
   397       WkAxsYT2D6    (-)           
   398       WkAxsYT2D7    (-)           
   399       WkAxsZT2D1    (-)           
   400       WkAxsZT2D2    (-)           
   401       WkAxsZT2D3    (-)           
   402       WkAxsZT2D4    (-)           
   403       WkAxsZT2D5    (-)           
   404       WkAxsZT2D6    (-)           
   405       WkAxsZT2D7    (-)           
   406       WkPosXT2D1    (m)           
   407       WkPosXT2D2    (m)           
   408       WkPosXT2D3    (m)           
   409       WkPosXT2D4    (m)           
   410       WkPosXT2D5    (m)           
   411       WkPosXT2D6    (m)           
   412       WkPosXT2D7    (m)           
   413       WkPosYT2D1    (m)           
   414       WkPosYT2D2    (m)           
   415       WkPosYT2D3    (m)           
   416       WkPosYT2D4    (m)           
   417       WkPosYT2D5    (m)           
   418       WkPosYT2D6    (m)           
   419       WkPosYT2D7    (m)           
   420       WkPosZT2D1    (m)           
   421       WkPosZT2D2    (m)           
   422       WkPosZT2D3    (m)           
   423       WkPosZT2D4    (m)           
   424       WkPosZT2D5    (m)           
   425       WkPosZT2D6    (m)           
   426       WkPosZT2D7    (m)           
   427       WkDfVxT2N01D1 (m/s)         
   428       WkDfVxT2N02D1 (m/s)         
   429       WkDfVxT2N03D1 (m/s)         
   430       WkDfVxT2N04D1 (m/s)         
   431       WkDfVxT2N05D1 (m/s)         
   432       WkDfVxT2N06D1 (m/s)         
   433       WkDfVxT2N07D1 (m/s)         
   434       WkDfVxT2N08D1 (m/s)         
   435       WkDfVxT2N09D1 (m/s)         
   436       WkDfVxT2N10D1 (m/s)         
   437       WkDfVxT2N11D1 (m/s)         
   438       WkDfVxT2N12D1 (m/s)         
   439       WkDfVxT2N13D1 (m/s)         
   440       WkDfVxT2N14D1 (m/s)         
   441       WkDfVxT2N15D1 (m/s)         
   442       WkDfVxT2N16D1 (m/s)         
   443       WkDfVxT2N17D1 (m/s)         
   444       WkDfVxT2N18D1 (m/s)         
   445       WkDfVxT2N19D1 (m/s)         
   446       WkDfVxT2N20D1 (m/s)         
   447       WkDfVxT2N01D2 (m/s)         
   448       WkDfVxT2N02D2 (m/s)         
   449       WkDfVxT2N03D2 (m/s)         
   450       WkDfVxT2N04D2 (m/s)         
   451       WkDfVxT2N05D2 (m/s)         
   452       WkDfVxT2N06D2 (m/s)         
   453       WkDfVxT2N07D2 (m/s)         
   454       WkDfVxT2N08D2 (m/s)         
   455       WkDfVxT2N09D2 (m/s)         
   456       WkDfVxT2N10D2 (m/s)         
   457       WkDfVxT2N11D2 (m/s)         
   458       WkDfVxT2N12D2 (m/s)         
   459       WkDfVxT2N13D2 (m/s)         
   460       WkDfVxT2N14D2 (m/s)         
   461       WkDfVxT2N15D2 (m/s)         
   462       WkDfVxT2N16D2 (m/s)         
   463       WkDfVxT2N17D2 (m/s)         
   464       WkDfVxT2N18D2 (m/s)         
   465       WkDfVxT2N19D2 (m/s)         
   466       WkDfVxT2N20D2 (m/s)         
   467       WkDfVxT2N01D3 (m/s)         
   468       WkDfVxT2N02D3 (m/s)         
   469       WkDfVxT2N03D3 (m/s)         
   470       WkDfVxT2N04D3 (m/s)         
   471       WkDfVxT2N05D3 (m/s)         
   472       WkDfVxT2N06D3 (m/s)         
   473       WkDfVxT2N07D3 (m/s)         
   474       WkDfVxT2N08D3 (m/s)         
   475       WkDfVxT2N09D3 (m/s)         
   476       WkDfVxT2N10D3 (m/s)         
   477       WkDfVxT2N11D3 (m/s)         
   478       WkDfVxT2N12D3 (m/s)         
   479       WkDfVxT2N13D3 (m/s)         
   480       WkDfVxT2N14D3 (m/s)         
   481       WkDfVxT2N15D3 (m/s)         
   482       WkDfVxT2N16D3 (m/s)         
   483       WkDfVxT2N17D3 (m/s)         
   484       WkDfVxT2N18D3 (m/s)         
   485       WkDfVxT2N19D3 (m/s)         
   486       WkDfVxT2N20D3 (m/s)         
   487       WkDfVxT2N01D4 (m/s)         
   488       WkDfVxT2N02D4 (m/s)         
   489       WkDfVxT2N03D4 (m/s)         
   490       WkDfVxT2N04D4 (m/s)         
   491       WkDfVxT2N05D4 (m/s)         
   492       WkDfVxT2N06D4 (m/s)         
   493       WkDfVxT2N07D4 (m/s)         
   494       WkDfVxT2N08D4 (m/s)         
   495       WkDfVxT2N09D4 (m/s)         
   496       WkDfVxT2N10D4 (m/s)         
   497       WkDfVxT2N11D4 (m/s)         
   498       WkDfVxT2N12D4 (m/s)         
   499       WkDfVxT2N13D4 (m/s)         
   500       WkDfVxT2N14D4 (m/s)         
   501       WkDfVxT2N15D4 (m/s)         
   502       WkDfVxT2N16D4 (m/s)         
   503       WkDfVxT2N17D4 (m/s)         
   504       WkDfVxT2N18D4 (m/s)         
   505       WkDfVxT2N19D4 (m/s)         
   506       WkDfVxT2N20D4 (m/s)         
   507       WkDfVxT2N01D5 (m/s)         
   508       WkDfVxT2N02D5 (m/s)         
   509       WkDfVxT2N03D5 (m/s)         
   510       WkDfVxT2N04D5 (m/s)         
   511       WkDfVxT2N05D5 (m/s)         
   512       WkDfVxT2N06D5 (m/s)         
   513       WkDfVxT2N07D5 (m/s)         
   514       WkDfVxT2N08D5 (m/s)         
   515       WkDfVxT2N09D5 (m/s)         
   516       WkDfVxT2N10D5 (m/s)         
   517       WkDfVxT2N11D5 (m/s)         
   518       WkDfVxT2N12D5 (m/s)         
   519       WkDfVxT2N13D5 (m/s)         
   520       WkDfVxT2N14D5 (m/s)         
   521       WkDfVxT2N15D5 (m/s)         
   522       WkDfVxT2N16D5 (m/s)         
   523       WkDfVxT2N17D5 (m/s)         
   524       WkDfVxT2N18D5 (m/s)         
   525       WkDfVxT2N19D5 (m/s)         
   526       WkDfVxT2N20D5 (m/s)         
   527       WkDfVxT2N01D6 (m/s)         
   528       WkDfVxT2N02D6 (m/s)         
   529       WkDfVxT2N03D6 (m/s)         
   530       WkDfVxT2N04D6 (m/s)         
   531       WkDfVxT2N05D6 (m/s)         
   532       WkDfVxT2N06D6 (m/s)         
   533       WkDfVxT2N07D6 (m/s)         
   534       WkDfVxT2N08D6 (m/s)         
   535       WkDfVxT2N09D6 (m/s)         
   536       WkDfVxT2N10D6 (m/s)         
   537       WkDfVxT2N11D6 (m/s)         