
FAST Summary File

Predictions were generated on 20-Jan-2021 at 08:30:43 using OpenFAST, compiled as a 64-bit application using single precision at commit GIT-NOTFOUND
  compiled with
    NWTC Subroutine Library
    ElastoDyn
    BeamDyn [not called]
    InflowWind
    AeroDyn14 [not called]
    AeroDyn
    ServoDyn
    HydroDyn [not called]
    SubDyn [not called]
    ExtPtfm_MCKF [not called]
    MAP [not called]
    FEAMooring [not called]
    MoorDyn [not called]
    OrcaFlexInterface [not called]
    IceFloe [not called]
    IceDyn [not called]


Modeling a land-based turbine
Description from the FAST input file: 
  FAST model of the DTU 10MW Reference Wind Turbine on monopile

Interpolation order for input/output time histories: 1 (linear)
Number of correction iterations:  0


   Requested Time Steps  
  -------------------------------------------------
  Component          Time Step (s)    Subcycles (-)
  -----------------  ---------------  -------------
  FAST (glue code)    2.500E-02
  InflowWind          2.500E-02              1
  ElastoDyn           2.500E-02              1
  AeroDyn             2.500E-02              1
  ServoDyn            2.500E-02              1
  FAST output files   2.500E-02              1


   Requested Channels in FAST Output File(s)  
  --------------------------------------------
  Number  Name        Units       Generated by
  ------  ----------  ----------  ------------
       1  Time        (s)         OpenFAST
       2  Wind1VelX   (m/s)       InflowWind
       3  RotSpeed    (rpm)       ElastoDyn
       4  GenSpeed    (rpm)       ElastoDyn
       5  TTDspFA     (m)         ElastoDyn
       6  TTDspSS     (m)         ElastoDyn
       7  YawBrTAxp   (m/s^2)     ElastoDyn
       8  BldPitch1   (deg)       ElastoDyn
       9  BldPitch2   (deg)       ElastoDyn
      10  BldPitch3   (deg)       ElastoDyn
      11  Azimuth     (deg)       ElastoDyn
      12  RootMyb1    (kN-m)      ElastoDyn
      13  RootMyb2    (kN-m)      ElastoDyn
      14  RootMyb3    (kN-m)      ElastoDyn
      15  RootMyc1    (kN-m)      ElastoDyn
      16  RootMyc2    (kN-m)      ElastoDyn
      17  RootMyc3    (kN-m)      ElastoDyn
      18  TwrBsMyt    (kN-m)      ElastoDyn
      19  LSShftTq    (kN-m)      ElastoDyn
      20  RotThrust   (kN)        ElastoDyn
      21  TipDxc1     (m)         ElastoDyn
      22  TipDyc1     (m)         ElastoDyn
      23  RtAeroFxh   (N)         AeroDyn
      24  GenPwr      (kW)        ServoDyn
      25  GenTq       (kN-m)      ServoDyn
      26  NTMD_XQ     INVALID     ServoDyn
      27  NTMD_XQD    INVALID     ServoDyn
      28  NTMD_YQ     INVALID     ServoDyn
      29  NTMD_YQD    INVALID     ServoDyn
